 Entering Gaussian System, Link 0=g09
 Initial command:
 /opt/g09/l1.exe "/scratch/data/florian/gaussian_scratch/Gau-11563.inp" -scrdir="/scratch/data/florian/gaussian_scratch/"
 Entering Link 1 = /opt/g09/l1.exe PID=     11565.
  
 Copyright (c) 1988,1990,1992,1993,1995,1998,2003,2009,2013,
            Gaussian, Inc.  All Rights Reserved.
  
 This is part of the Gaussian(R) 09 program.  It is based on
 the Gaussian(R) 03 system (copyright 2003, Gaussian, Inc.),
 the Gaussian(R) 98 system (copyright 1998, Gaussian, Inc.),
 the Gaussian(R) 94 system (copyright 1995, Gaussian, Inc.),
 the Gaussian 92(TM) system (copyright 1992, Gaussian, Inc.),
 the Gaussian 90(TM) system (copyright 1990, Gaussian, Inc.),
 the Gaussian 88(TM) system (copyright 1988, Gaussian, Inc.),
 the Gaussian 86(TM) system (copyright 1986, Carnegie Mellon
 University), and the Gaussian 82(TM) system (copyright 1983,
 Carnegie Mellon University). Gaussian is a federally registered
 trademark of Gaussian, Inc.
  
 This software contains proprietary and confidential information,
 including trade secrets, belonging to Gaussian, Inc.
  
 This software is provided under written license and may be
 used, copied, transmitted, or stored only in accord with that
 written license.
  
 The following legend is applicable only to US Government
 contracts under FAR:
  
                    RESTRICTED RIGHTS LEGEND
  
 Use, reproduction and disclosure by the US Government is
 subject to restrictions as set forth in subparagraphs (a)
 and (c) of the Commercial Computer Software - Restricted
 Rights clause in FAR 52.227-19.
  
 Gaussian, Inc.
 340 Quinnipiac St., Bldg. 40, Wallingford CT 06492
  
  
 ---------------------------------------------------------------
 Warning -- This program may not be used in any manner that
 competes with the business of Gaussian, Inc. or will provide
 assistance to any competitor of Gaussian, Inc.  The licensee
 of this program is prohibited from giving any competitor of
 Gaussian, Inc. access to this program.  By using this program,
 the user acknowledges that Gaussian, Inc. is engaged in the
 business of creating and licensing software in the field of
 computational chemistry and represents and warrants to the
 licensee that it is not a competitor of Gaussian, Inc. and that
 it will not use this program in any manner prohibited above.
 ---------------------------------------------------------------
  

 Cite this work as:
 Gaussian 09, Revision D.01,
 M. J. Frisch, G. W. Trucks, H. B. Schlegel, G. E. Scuseria, 
 M. A. Robb, J. R. Cheeseman, G. Scalmani, V. Barone, B. Mennucci, 
 G. A. Petersson, H. Nakatsuji, M. Caricato, X. Li, H. P. Hratchian, 
 A. F. Izmaylov, J. Bloino, G. Zheng, J. L. Sonnenberg, M. Hada, 
 M. Ehara, K. Toyota, R. Fukuda, J. Hasegawa, M. Ishida, T. Nakajima, 
 Y. Honda, O. Kitao, H. Nakai, T. Vreven, J. A. Montgomery, Jr., 
 J. E. Peralta, F. Ogliaro, M. Bearpark, J. J. Heyd, E. Brothers, 
 K. N. Kudin, V. N. Staroverov, T. Keith, R. Kobayashi, J. Normand, 
 K. Raghavachari, A. Rendell, J. C. Burant, S. S. Iyengar, J. Tomasi, 
 M. Cossi, N. Rega, J. M. Millam, M. Klene, J. E. Knox, J. B. Cross, 
 V. Bakken, C. Adamo, J. Jaramillo, R. Gomperts, R. E. Stratmann, 
 O. Yazyev, A. J. Austin, R. Cammi, C. Pomelli, J. W. Ochterski, 
 R. L. Martin, K. Morokuma, V. G. Zakrzewski, G. A. Voth, 
 P. Salvador, J. J. Dannenberg, S. Dapprich, A. D. Daniels, 
 O. Farkas, J. B. Foresman, J. V. Ortiz, J. Cioslowski, 
 and D. J. Fox, Gaussian, Inc., Wallingford CT, 2013.
 
 ******************************************
 Gaussian 09:  ES64L-G09RevD.01 24-Apr-2013
                27-Jan-2021 
 ******************************************
 %chk=otf.chk
 %mem=4GB
 %NPROCSHARED=3
 Will use up to    3 processors via shared memory.
 -------------------------------------------------------------------
 # b3lyp/cc-pvdz opt=(maxcycle=200) pop=(mk, dipole) density=current
 -------------------------------------------------------------------
 1/6=200,14=-1,18=20,19=15,26=3,38=1/1,3;
 2/9=110,12=2,17=6,18=5,40=1/2;
 3/5=16,11=2,16=1,25=1,30=1,71=1,74=-5/1,2,3;
 4//1;
 5/5=2,38=5/2;
 6/7=2,8=2,9=2,10=2,15=24,20=1,22=-1,28=1/1,2;
 7//1,2,3,16;
 1/6=200,14=-1,18=20,19=15,26=3/3(2);
 2/9=110/2;
 99//99;
 2/9=110/2;
 3/5=16,11=2,16=1,25=1,30=1,71=1,74=-5/1,2,3;
 4/5=5,16=3,69=1/1;
 5/5=2,38=5/2;
 7//1,2,3,16;
 1/6=200,14=-1,18=20,19=15,26=3/3(-5);
 2/9=110/2;
 6/7=2,8=2,9=2,10=2,15=24,19=2,20=1,22=-1,28=1/1,2;
 99/9=1/99;
 --------------------------
 initial opt of coordinates
 --------------------------
 Symbolic Z-matrix:
 Charge = -1 Multiplicity = 1
 C                     1.05618   0.06914  -0.04935 
 F                     0.53318   0.7781   -1.10097 
 F                     0.51409  -1.1877   -0.14166 
 F                     0.51409   0.62608   1.08113 
 S                     2.92589   0.05861  -0.03374 
 O                     3.32638  -0.56451  -1.30265 
 O                     3.32639   1.4686    0.06799 
 O                     3.30499  -0.73491   1.1433 
 

 GradGradGradGradGradGradGradGradGradGradGradGradGradGradGradGradGradGrad
 Berny optimization.
 Initialization pass.
                           ----------------------------
                           !    Initial Parameters    !
                           ! (Angstroms and Degrees)  !
 --------------------------                            --------------------------
 ! Name  Definition              Value          Derivative Info.                !
 --------------------------------------------------------------------------------
 ! R1    R(1,2)                  1.3719         estimate D2E/DX2                !
 ! R2    R(1,3)                  1.3719         estimate D2E/DX2                !
 ! R3    R(1,4)                  1.3719         estimate D2E/DX2                !
 ! R4    R(1,5)                  1.8698         estimate D2E/DX2                !
 ! R5    R(5,6)                  1.4693         estimate D2E/DX2                !
 ! R6    R(5,7)                  1.4693         estimate D2E/DX2                !
 ! R7    R(5,8)                  1.4693         estimate D2E/DX2                !
 ! A1    A(2,1,3)              105.7373         estimate D2E/DX2                !
 ! A2    A(2,1,4)              105.7377         estimate D2E/DX2                !
 ! A3    A(2,1,5)              112.9868         estimate D2E/DX2                !
 ! A4    A(3,1,4)              105.7379         estimate D2E/DX2                !
 ! A5    A(3,1,5)              112.9874         estimate D2E/DX2                !
 ! A6    A(4,1,5)              112.9877         estimate D2E/DX2                !
 ! A7    A(1,5,6)              105.5298         estimate D2E/DX2                !
 ! A8    A(1,5,7)              105.5298         estimate D2E/DX2                !
 ! A9    A(1,5,8)              105.5294         estimate D2E/DX2                !
 ! A10   A(6,5,7)              113.1087         estimate D2E/DX2                !
 ! A11   A(6,5,8)              113.1085         estimate D2E/DX2                !
 ! A12   A(7,5,8)              113.1087         estimate D2E/DX2                !
 ! D1    D(2,1,5,6)            -60.0            estimate D2E/DX2                !
 ! D2    D(2,1,5,7)             60.0002         estimate D2E/DX2                !
 ! D3    D(2,1,5,8)           -179.9997         estimate D2E/DX2                !
 ! D4    D(3,1,5,6)             59.9992         estimate D2E/DX2                !
 ! D5    D(3,1,5,7)            179.9995         estimate D2E/DX2                !
 ! D6    D(3,1,5,8)            -60.0005         estimate D2E/DX2                !
 ! D7    D(4,1,5,6)            180.0            estimate D2E/DX2                !
 ! D8    D(4,1,5,7)            -59.9998         estimate D2E/DX2                !
 ! D9    D(4,1,5,8)             60.0003         estimate D2E/DX2                !
 --------------------------------------------------------------------------------
 Trust Radius=3.00D-01 FncErr=1.00D-07 GrdErr=1.00D-06
 Number of steps in this run=    100 maximum allowed number of steps=    100.
 GradGradGradGradGradGradGradGradGradGradGradGradGradGradGradGradGradGrad

                          Input orientation:                          
 ---------------------------------------------------------------------
 Center     Atomic      Atomic             Coordinates (Angstroms)
 Number     Number       Type             X           Y           Z
 ---------------------------------------------------------------------
      1          6           0        1.056180    0.069140   -0.049350
      2          9           0        0.533180    0.778100   -1.100970
      3          9           0        0.514090   -1.187700   -0.141660
      4          9           0        0.514090    0.626080    1.081130
      5         16           0        2.925890    0.058610   -0.033740
      6          8           0        3.326380   -0.564510   -1.302650
      7          8           0        3.326390    1.468600    0.067990
      8          8           0        3.304990   -0.734910    1.143300
 ---------------------------------------------------------------------
                    Distance matrix (angstroms):
                    1          2          3          4          5
     1  C    0.000000
     2  F    1.371881   0.000000
     3  F    1.371871   2.187467   0.000000
     4  F    1.371871   2.187472   2.187467   0.000000
     5  S    1.869805   2.716930   2.716931   2.716935   0.000000
     6  O    2.669472   3.105679   3.105678   3.874130   1.469287
     7  O    2.669478   3.105685   3.874134   3.105692   1.469293
     8  O    2.669468   3.874129   3.105683   3.105685   1.469290
                    6          7          8
     6  O    0.000000
     7  O    2.451977   0.000000
     8  O    2.451972   2.451980   0.000000
 This structure is nearly, but not quite of a higher symmetry.
 Consider Symm=Loose if the higher symmetry is desired.
 Stoichiometry    CF3O3S(1-)
 Framework group  C1[X(CF3O3S)]
 Deg. of freedom    18
 Full point group                 C1      NOp   1
 Largest Abelian subgroup         C1      NOp   1
 Largest concise Abelian subgroup C1      NOp   1
                         Standard orientation:                         
 ---------------------------------------------------------------------
 Center     Atomic      Atomic             Coordinates (Angstroms)
 Number     Number       Type             X           Y           Z
 ---------------------------------------------------------------------
      1          6           0        0.181410    0.348922    0.871067
      2          9           0       -0.368826    1.588656    1.076873
      3          9           0       -0.304408   -0.445669    1.878358
      4          9           0        1.522515    0.490589    1.122854
      5         16           0       -0.173500   -0.333720   -0.833107
      6          8           0       -1.637453   -0.416887   -0.926531
      7          8           0        0.410374    0.632591   -1.773402
      8          8           0        0.482580   -1.647729   -0.874998
 ---------------------------------------------------------------------
 Rotational constants (GHZ):      2.7015193      1.4868960      1.4868955
 Standard basis: CC-pVDZ (5D, 7F)
 There are   124 symmetry adapted cartesian basis functions of A   symmetry.
 There are   116 symmetry adapted basis functions of A   symmetry.
   116 basis functions,   302 primitive gaussians,   124 cartesian basis functions
    37 alpha electrons       37 beta electrons
       nuclear repulsion energy       543.9790776454 Hartrees.
 NAtoms=    8 NActive=    8 NUniq=    8 SFac= 1.00D+00 NAtFMM=   60 NAOKFM=F Big=F
 Integral buffers will be    131072 words long.
 Raffenetti 2 integral format.
 Two-electron integral symmetry is turned on.
 One-electron integrals computed using PRISM.
 NBasis=   116 RedAO= T EigKep=  5.98D-03  NBF=   116
 NBsUse=   116 1.00D-06 EigRej= -1.00D+00 NBFU=   116
 ExpMin= 1.41D-01 ExpMax= 1.11D+05 ExpMxC= 1.07D+03 IAcc=2 IRadAn=         4 AccDes= 0.00D+00
 Harris functional with IExCor=  402 and IRadAn=       4 diagonalized for initial guess.
 HarFok:  IExCor=  402 AccDes= 0.00D+00 IRadAn=         4 IDoV= 1 UseB2=F ITyADJ=14
 ICtDFT=  3500011 ScaDFX=  1.000000  1.000000  1.000000  1.000000
 FoFCou: FMM=F IPFlag=           0 FMFlag=      100000 FMFlg1=           0
         NFxFlg=           0 DoJE=T BraDBF=F KetDBF=T FulRan=T
         wScrn=  0.000000 ICntrl=     500 IOpCl=  0 I1Cent=   200000004 NGrid=           0
         NMat0=    1 NMatS0=      1 NMatT0=    0 NMatD0=    1 NMtDS0=    0 NMtDT0=    0
 Petite list used in FoFCou.
 Keep R1 ints in memory in canonical form, NReq=24071139.
 Requested convergence on RMS density matrix=1.00D-08 within 128 cycles.
 Requested convergence on MAX density matrix=1.00D-06.
 Requested convergence on             energy=1.00D-06.
 No special actions if energy rises.
 Integral accuracy reduced to 1.0D-05 until final iterations.
 Initial convergence to 1.0D-05 achieved.  Increase integral accuracy.
 SCF Done:  E(RB3LYP) =  -961.517582499     A.U. after   14 cycles
            NFock= 14  Conv=0.74D-08     -V/T= 2.0037

 **********************************************************************

            Population analysis using the SCF density.

 **********************************************************************

 Orbital symmetries:
       Occupied  (A) (A) (A) (A) (A) (A) (A) (A) (A) (A) (A) (A)
                 (A) (A) (A) (A) (A) (A) (A) (A) (A) (A) (A) (A)
                 (A) (A) (A) (A) (A) (A) (A) (A) (A) (A) (A) (A)
                 (A)
       Virtual   (A) (A) (A) (A) (A) (A) (A) (A) (A) (A) (A) (A)
                 (A) (A) (A) (A) (A) (A) (A) (A) (A) (A) (A) (A)
                 (A) (A) (A) (A) (A) (A) (A) (A) (A) (A) (A) (A)
                 (A) (A) (A) (A) (A) (A) (A) (A) (A) (A) (A) (A)
                 (A) (A) (A) (A) (A) (A) (A) (A) (A) (A) (A) (A)
                 (A) (A) (A) (A) (A) (A) (A) (A) (A) (A) (A) (A)
                 (A) (A) (A) (A) (A) (A) (A)
 The electronic state is 1-A.
 Alpha  occ. eigenvalues --  -88.91750 -24.57811 -24.57809 -24.57808 -18.92273
 Alpha  occ. eigenvalues --  -18.92272 -18.92272 -10.27087  -7.94770  -5.91108
 Alpha  occ. eigenvalues --   -5.91050  -5.91050  -1.15009  -1.06635  -1.06635
 Alpha  occ. eigenvalues --   -0.93386  -0.79086  -0.79085  -0.56787  -0.46749
 Alpha  occ. eigenvalues --   -0.42946  -0.42946  -0.35215  -0.31212  -0.31212
 Alpha  occ. eigenvalues --   -0.28033  -0.27606  -0.27606  -0.25846  -0.25845
 Alpha  occ. eigenvalues --   -0.25457  -0.14359  -0.14359  -0.11990  -0.10877
 Alpha  occ. eigenvalues --   -0.10877  -0.06278
 Alpha virt. eigenvalues --    0.25045   0.25046   0.25767   0.34202   0.34490
 Alpha virt. eigenvalues --    0.41429   0.41429   0.56384   0.63153   0.63157
 Alpha virt. eigenvalues --    0.63893   0.71086   0.71090   0.75984   0.83021
 Alpha virt. eigenvalues --    0.83022   0.93596   0.98803   0.98805   1.08892
 Alpha virt. eigenvalues --    1.15525   1.15527   1.16342   1.18696   1.18698
 Alpha virt. eigenvalues --    1.24823   1.24824   1.27601   1.31189   1.31190
 Alpha virt. eigenvalues --    1.32873   1.37222   1.41425   1.41425   1.46053
 Alpha virt. eigenvalues --    1.46780   1.46780   1.51522   1.51526   1.56624
 Alpha virt. eigenvalues --    1.81668   1.88156   1.88157   2.09314   2.09319
 Alpha virt. eigenvalues --    2.29979   2.45437   2.45445   2.73483   2.74104
 Alpha virt. eigenvalues --    2.80124   2.80126   2.80277   2.82068   2.82069
 Alpha virt. eigenvalues --    2.87120   2.93530   2.93530   3.02788   3.22724
 Alpha virt. eigenvalues --    3.22725   3.38507   3.53097   3.53098   3.64425
 Alpha virt. eigenvalues --    3.68243   3.68467   3.68468   3.68905   3.68908
 Alpha virt. eigenvalues --    3.70119   3.75401   3.75402   3.98460   4.09624
 Alpha virt. eigenvalues --    4.09625   4.09715   4.19749   4.19750
          Condensed to atoms (all electrons):
               1          2          3          4          5          6
     1  C    4.642393   0.318410   0.318411   0.318401   0.164559  -0.028111
     2  F    0.318410   8.959735  -0.033104  -0.033104  -0.013885   0.000227
     3  F    0.318411  -0.033104   8.959730  -0.033105  -0.013882   0.000227
     4  F    0.318401  -0.033104  -0.033105   8.959744  -0.013880   0.000231
     5  S    0.164559  -0.013885  -0.013882  -0.013880  13.336884   0.556346
     6  O   -0.028111   0.000227   0.000227   0.000231   0.556346   8.096382
     7  O   -0.028111   0.000227   0.000231   0.000227   0.556355  -0.046469
     8  O   -0.028120   0.000231   0.000227   0.000227   0.556359  -0.046469
               7          8
     1  C   -0.028111  -0.028120
     2  F    0.000227   0.000231
     3  F    0.000231   0.000227
     4  F    0.000227   0.000227
     5  S    0.556355   0.556359
     6  O   -0.046469  -0.046469
     7  O    8.096379  -0.046468
     8  O   -0.046468   8.096378
 Mulliken charges:
               1
     1  C    0.322169
     2  F   -0.198737
     3  F   -0.198736
     4  F   -0.198741
     5  S    0.871144
     6  O   -0.532363
     7  O   -0.532370
     8  O   -0.532364
 Sum of Mulliken charges =  -1.00000
 Mulliken charges with hydrogens summed into heavy atoms:
               1
     1  C    0.322169
     2  F   -0.198737
     3  F   -0.198736
     4  F   -0.198741
     5  S    0.871144
     6  O   -0.532363
     7  O   -0.532370
     8  O   -0.532364
 Electronic spatial extent (au):  <R**2>=            884.3892
 Charge=             -1.0000 electrons
 Dipole moment (field-independent basis, Debye):
    X=              0.8391    Y=              1.6138    Z=              4.0289  Tot=              4.4204
 Quadrupole moment (field-independent basis, Debye-Ang):
   XX=            -57.5795   YY=            -57.8891   ZZ=            -60.1058
   XY=             -0.2203   XZ=             -0.5500   YZ=             -1.0579
 Traceless Quadrupole moment (field-independent basis, Debye-Ang):
   XX=              0.9453   YY=              0.6357   ZZ=             -1.5810
   XY=             -0.2203   XZ=             -0.5500   YZ=             -1.0579
 Octapole moment (field-independent basis, Debye-Ang**2):
  XXX=             11.6509  YYY=             14.4203  ZZZ=             24.5454  XYY=             -1.5563
  XXY=              4.7523  XXZ=             10.8512  XZZ=             -0.4676  YZZ=             -0.6559
  YYZ=             10.8309  XYZ=              0.4189
 Hexadecapole moment (field-independent basis, Debye-Ang**3):
 XXXX=           -238.8593 YYYY=           -267.7437 ZZZZ=           -471.7356 XXXY=            -15.2657
 XXXZ=            -36.9627 YYYX=             -3.9006 YYYZ=            -58.6109 ZZZX=            -18.9535
 ZZZY=            -37.7810 XXYY=            -80.3490 XXZZ=           -119.4399 YYZZ=           -124.4612
 XXYZ=            -19.5925 YYXZ=             -4.3836 ZZXY=             -4.9880
 N-N= 5.439790776454D+02 E-N=-3.385050543083D+03  KE= 9.580077571796D+02
 Merz-Kollman atomic radii used.

 **********************************************************************

            Electrostatic Properties Using The SCF Density

 **********************************************************************

       Atomic Center    1 is at   0.181410  0.348922  0.871067
       Atomic Center    2 is at  -0.368826  1.588656  1.076873
       Atomic Center    3 is at  -0.304408 -0.445669  1.878358
       Atomic Center    4 is at   1.522515  0.490589  1.122854
       Atomic Center    5 is at  -0.173500 -0.333720 -0.833107
       Atomic Center    6 is at  -1.637453 -0.416887 -0.926531
       Atomic Center    7 is at   0.410374  0.632591 -1.773402
       Atomic Center    8 is at   0.482580 -1.647729 -0.874998
     664 points will be used for fitting atomic charges
 Fitting point charges to electrostatic potential
 The dipole moment will be constrained to the correct value
 Charges from ESP fit, RMS=   0.00160 RRMS=   0.01122:
 ESP charges:
               1
     1  C    0.251904
     2  F   -0.157439
     3  F   -0.158938
     4  F   -0.157204
     5  S    0.936151
     6  O   -0.570908
     7  O   -0.572460
     8  O   -0.571106
 Sum of ESP charges =  -1.00000
 ESP charges with hydrogens summed into heavy atoms:
               1
     1  C    0.251904
     2  F   -0.157439
     3  F   -0.158938
     4  F   -0.157204
     5  S    0.936151
     6  O   -0.570908
     7  O   -0.572460
     8  O   -0.571106
 Charge=  -1.00000 Dipole=     0.8391     1.6138     4.0289 Tot=     4.4204
 -----------------------------------------------------------------

              Electrostatic Properties (Atomic Units)

 -----------------------------------------------------------------
    Center     Electric         -------- Electric Field --------
               Potential          X             Y             Z
 -----------------------------------------------------------------
    1 Atom    -14.666300
    2 Atom    -26.692548
    3 Atom    -26.692555
    4 Atom    -26.692552
    5 Atom    -59.169641
    6 Atom    -22.570061
    7 Atom    -22.570062
    8 Atom    -22.570055
 -----------------------------------------------------------------
 Calling FoFJK, ICntrl=      2127 FMM=F ISym2X=0 I1Cent= 0 IOpClX= 0 NMat=1 NMatS=1 NMatT=0.
 ***** Axes restored to original set *****
 -------------------------------------------------------------------
 Center     Atomic                   Forces (Hartrees/Bohr)
 Number     Number              X              Y              Z
 -------------------------------------------------------------------
      1        6          -0.027575366    0.000151460   -0.000216931
      2        9           0.007485768   -0.005390263    0.007954210
      3        9           0.007481715    0.009419221    0.000772019
      4        9           0.007623144   -0.004160787   -0.008537647
      5       16           0.031037620   -0.000158693    0.000258326
      6        8          -0.008505613   -0.014937341   -0.030700544
      7        8          -0.008485274    0.034058284    0.002296751
      8        8          -0.009061995   -0.018981881    0.028173816
 -------------------------------------------------------------------
 Cartesian Forces:  Max     0.034058284 RMS     0.015648878

 GradGradGradGradGradGradGradGradGradGradGradGradGradGradGradGradGradGrad
 Berny optimization.
 FormGI is forming the generalized inverse of G from B-inverse, IUseBI=4.
 Internal  Forces:  Max     0.030541143 RMS     0.016328566
 Search for a local minimum.
 Step number   1 out of a maximum of  100
 All quantities printed in internal units (Hartrees-Bohrs-Radians)
 Mixed Optimization -- RFO/linear search
 Second derivative matrix not updated -- first step.
 ITU=  0
     Eigenvalues ---    0.00230   0.07829   0.07829   0.09980   0.09980
     Eigenvalues ---    0.21308   0.25000   0.25000   0.25000   0.25000
     Eigenvalues ---    0.25000   0.25000   0.50617   0.50619   0.50619
     Eigenvalues ---    0.87816   0.87817   0.87818
 RFO step:  Lambda=-1.97062482D-02 EMin= 2.30000000D-03
 Linear search not attempted -- first point.
 Iteration  1 RMS(Cart)=  0.08156066 RMS(Int)=  0.00720159
 Iteration  2 RMS(Cart)=  0.00738452 RMS(Int)=  0.00429354
 Iteration  3 RMS(Cart)=  0.00016619 RMS(Int)=  0.00429269
 Iteration  4 RMS(Cart)=  0.00000449 RMS(Int)=  0.00429269
 Iteration  5 RMS(Cart)=  0.00000012 RMS(Int)=  0.00429269
 Variable       Old X    -DE/DX   Delta X   Delta X   Delta X     New X
                                 (Linear)    (Quad)   (Total)
    R1        2.59248  -0.01174   0.00000  -0.02233  -0.02233   2.57015
    R2        2.59246  -0.01163   0.00000  -0.02211  -0.02211   2.57035
    R3        2.59246  -0.01174   0.00000  -0.02232  -0.02232   2.57013
    R4        3.53342   0.00498   0.00000   0.02141   0.02141   3.55483
    R5        2.77655   0.03053   0.00000   0.03400   0.03400   2.81055
    R6        2.77656   0.03054   0.00000   0.03402   0.03402   2.81058
    R7        2.77656   0.03048   0.00000   0.03394   0.03394   2.81050
    A1        1.84546   0.00413   0.00000   0.01539   0.01531   1.86078
    A2        1.84547   0.00418   0.00000   0.01533   0.01524   1.86071
    A3        1.97199  -0.00376   0.00000  -0.01398  -0.01407   1.95792
    A4        1.84548   0.00412   0.00000   0.01535   0.01527   1.86075
    A5        1.97200  -0.00357   0.00000  -0.01315  -0.01323   1.95877
    A6        1.97201  -0.00375   0.00000  -0.01397  -0.01406   1.95795
    A7        1.84184  -0.02841   0.00000  -0.10530  -0.11144   1.73040
    A8        1.84184  -0.02843   0.00000  -0.10542  -0.11156   1.73028
    A9        1.84183  -0.02848   0.00000  -0.10561  -0.11176   1.73008
   A10        1.97412   0.02393   0.00000   0.08876   0.07719   2.05131
   A11        1.97412   0.02393   0.00000   0.08873   0.07715   2.05126
   A12        1.97412   0.02393   0.00000   0.08866   0.07706   2.05118
    D1       -1.04720  -0.00001   0.00000   0.00043   0.00044  -1.04676
    D2        1.04720   0.00000   0.00000   0.00056   0.00055   1.04775
    D3       -3.14159  -0.00001   0.00000   0.00042   0.00043  -3.14116
    D4        1.04718   0.00001   0.00000   0.00067   0.00068   1.04786
    D5        3.14158   0.00003   0.00000   0.00080   0.00079  -3.14081
    D6       -1.04721   0.00001   0.00000   0.00067   0.00067  -1.04654
    D7        3.14159   0.00003   0.00000   0.00087   0.00087  -3.14072
    D8       -1.04719   0.00005   0.00000   0.00100   0.00098  -1.04621
    D9        1.04720   0.00003   0.00000   0.00086   0.00086   1.04807
         Item               Value     Threshold  Converged?
 Maximum Force            0.030541     0.000450     NO 
 RMS     Force            0.016329     0.000300     NO 
 Maximum Displacement     0.191694     0.001800     NO 
 RMS     Displacement     0.085682     0.001200     NO 
 Predicted change in Energy=-1.039333D-02
 GradGradGradGradGradGradGradGradGradGradGradGradGradGradGradGradGradGrad

                          Input orientation:                          
 ---------------------------------------------------------------------
 Center     Atomic      Atomic             Coordinates (Angstroms)
 Number     Number       Type             X           Y           Z
 ---------------------------------------------------------------------
      1          6           0        1.101254    0.068667   -0.048980
      2          9           0        0.600361    0.775278   -1.097590
      3          9           0        0.580539   -1.184559   -0.140307
      4          9           0        0.581419    0.624545    1.078196
      5         16           0        2.982298    0.058340   -0.033344
      6          8           0        3.226094   -0.586636   -1.351131
      7          8           0        3.225675    1.521850    0.071288
      8          8           0        3.203550   -0.764075    1.185918
 ---------------------------------------------------------------------
                    Distance matrix (angstroms):
                    1          2          3          4          5
     1  C    0.000000
     2  F    1.360065   0.000000
     3  F    1.360170   2.181226   0.000000
     4  F    1.360057   2.181083   2.181194   0.000000
     5  S    1.881137   2.705594   2.706415   2.705611   0.000000
     6  O    2.576813   2.968765   2.970281   3.789841   1.487277
     7  O    2.576697   2.969161   3.790273   2.968352   1.487293
     8  O    2.576446   3.789539   2.969152   2.969081   1.487252
                    6          7          8
     6  O    0.000000
     7  O    2.543421   0.000000
     8  O    2.543346   2.543293   0.000000
 Stoichiometry    CF3O3S(1-)
 Framework group  C1[X(CF3O3S)]
 Deg. of freedom    18
 Full point group                 C1      NOp   1
 Largest Abelian subgroup         C1      NOp   1
 Largest concise Abelian subgroup C1      NOp   1
                         Standard orientation:                         
 ---------------------------------------------------------------------
 Center     Atomic      Atomic             Coordinates (Angstroms)
 Number     Number       Type             X           Y           Z
 ---------------------------------------------------------------------
      1          6           0        0.918349   -0.000073    0.000050
      2          9           0        1.431728    0.301018    1.222982
      3          9           0        1.432979   -1.209251   -0.350814
      4          9           0        1.431864    0.908834   -0.871698
      5         16           0       -0.962788   -0.000136   -0.000064
      6          8           0       -1.199186   -1.058963    1.017283
      7          8           0       -1.199061    1.410415    0.408053
      8          8           0       -1.198580   -0.351802   -1.425775
 ---------------------------------------------------------------------
 Rotational constants (GHZ):      2.6070596      1.5673834      1.5673405
 Standard basis: CC-pVDZ (5D, 7F)
 There are   124 symmetry adapted cartesian basis functions of A   symmetry.
 There are   116 symmetry adapted basis functions of A   symmetry.
   116 basis functions,   302 primitive gaussians,   124 cartesian basis functions
    37 alpha electrons       37 beta electrons
       nuclear repulsion energy       546.7785826623 Hartrees.
 NAtoms=    8 NActive=    8 NUniq=    8 SFac= 1.00D+00 NAtFMM=   60 NAOKFM=F Big=F
 Integral buffers will be    131072 words long.
 Raffenetti 2 integral format.
 Two-electron integral symmetry is turned on.
 One-electron integrals computed using PRISM.
 NBasis=   116 RedAO= T EigKep=  6.16D-03  NBF=   116
 NBsUse=   116 1.00D-06 EigRej= -1.00D+00 NBFU=   116
 Initial guess from the checkpoint file:  "otf.chk"
 B after Tr=     0.000000    0.000000    0.000000
         Rot=    0.645906   -0.421551   -0.624108   -0.124861 Ang= -99.53 deg.
 ExpMin= 1.41D-01 ExpMax= 1.11D+05 ExpMxC= 1.07D+03 IAcc=2 IRadAn=         4 AccDes= 0.00D+00
 Harris functional with IExCor=  402 and IRadAn=       4 diagonalized for initial guess.
 HarFok:  IExCor=  402 AccDes= 0.00D+00 IRadAn=         4 IDoV= 1 UseB2=F ITyADJ=14
 ICtDFT=  3500011 ScaDFX=  1.000000  1.000000  1.000000  1.000000
 FoFCou: FMM=F IPFlag=           0 FMFlag=      100000 FMFlg1=           0
         NFxFlg=           0 DoJE=T BraDBF=F KetDBF=T FulRan=T
         wScrn=  0.000000 ICntrl=     500 IOpCl=  0 I1Cent=   200000004 NGrid=           0
         NMat0=    1 NMatS0=      1 NMatT0=    0 NMatD0=    1 NMtDS0=    0 NMtDT0=    0
 Petite list used in FoFCou.
 Keep R1 ints in memory in canonical form, NReq=24071139.
 Requested convergence on RMS density matrix=1.00D-08 within 128 cycles.
 Requested convergence on MAX density matrix=1.00D-06.
 Requested convergence on             energy=1.00D-06.
 No special actions if energy rises.
 Integral accuracy reduced to 1.0D-05 until final iterations.
 Initial convergence to 1.0D-05 achieved.  Increase integral accuracy.
 SCF Done:  E(RB3LYP) =  -961.521716436     A.U. after   13 cycles
            NFock= 13  Conv=0.39D-08     -V/T= 2.0037
 Calling FoFJK, ICntrl=      2127 FMM=F ISym2X=0 I1Cent= 0 IOpClX= 0 NMat=1 NMatS=1 NMatT=0.
 ***** Axes restored to original set *****
 -------------------------------------------------------------------
 Center     Atomic                   Forces (Hartrees/Bohr)
 Number     Number              X              Y              Z
 -------------------------------------------------------------------
      1        6          -0.004538804    0.000050631   -0.000052885
      2        9          -0.001122224   -0.000873284    0.001261237
      3        9          -0.001007380    0.001600664    0.000085643
      4        9          -0.001094912   -0.000689288   -0.001416124
      5       16          -0.037399687    0.000208790   -0.000270718
      6        8           0.015097660   -0.003511178   -0.006898405
      7        8           0.015072806    0.007704863    0.000649853
      8        8           0.014992541   -0.004491199    0.006641400
 -------------------------------------------------------------------
 Cartesian Forces:  Max     0.037399687 RMS     0.009777149

 GradGradGradGradGradGradGradGradGradGradGradGradGradGradGradGradGradGrad
 Berny optimization.
 Using GEDIIS/GDIIS optimizer.
 FormGI is forming the generalized inverse of G from B-inverse, IUseBI=4.
 Internal  Forces:  Max     0.029933078 RMS     0.011688068
 Search for a local minimum.
 Step number   2 out of a maximum of  100
 All quantities printed in internal units (Hartrees-Bohrs-Radians)
 Mixed Optimization -- RFO/linear search
 Update second derivatives using D2CorX and points    1    2
 DE= -4.13D-03 DEPred=-1.04D-02 R= 3.98D-01
 Trust test= 3.98D-01 RLast= 2.49D-01 DXMaxT set to 3.00D-01
 ITU=  0  0
 Use linear search instead of GDIIS.
     Eigenvalues ---    0.00230   0.08051   0.08060   0.11586   0.11588
     Eigenvalues ---    0.20923   0.24957   0.25000   0.25000   0.25000
     Eigenvalues ---    0.25000   0.49110   0.50617   0.50619   0.52336
     Eigenvalues ---    0.77843   0.87817   0.87818
 RFO step:  Lambda=-1.94617572D-03 EMin= 2.30001390D-03
 Quartic linear search produced a step of -0.36182.
 Iteration  1 RMS(Cart)=  0.04254374 RMS(Int)=  0.00132908
 Iteration  2 RMS(Cart)=  0.00137402 RMS(Int)=  0.00078679
 Iteration  3 RMS(Cart)=  0.00000158 RMS(Int)=  0.00078679
 Iteration  4 RMS(Cart)=  0.00000001 RMS(Int)=  0.00078679
 Variable       Old X    -DE/DX   Delta X   Delta X   Delta X     New X
                                 (Linear)    (Quad)   (Total)
    R1        2.57015  -0.00102   0.00808  -0.01271  -0.00464   2.56551
    R2        2.57035  -0.00110   0.00800  -0.01270  -0.00470   2.56565
    R3        2.57013  -0.00103   0.00808  -0.01273  -0.00465   2.56548
    R4        3.55483   0.00776  -0.00775   0.03513   0.02738   3.58221
    R5        2.81055   0.01012  -0.01230   0.02407   0.01177   2.82232
    R6        2.81058   0.01009  -0.01231   0.02406   0.01175   2.82233
    R7        2.81050   0.01015  -0.01228   0.02407   0.01179   2.82229
    A1        1.86078  -0.00203  -0.00554   0.00337  -0.00215   1.85863
    A2        1.86071  -0.00206  -0.00551   0.00335  -0.00214   1.85858
    A3        1.95792   0.00191   0.00509  -0.00308   0.00204   1.95997
    A4        1.86075  -0.00201  -0.00553   0.00339  -0.00211   1.85863
    A5        1.95877   0.00177   0.00479  -0.00302   0.00180   1.96057
    A6        1.95795   0.00189   0.00509  -0.00313   0.00199   1.95993
    A7        1.73040   0.02985   0.04032   0.00866   0.05033   1.78073
    A8        1.73028   0.02985   0.04036   0.00862   0.05033   1.78061
    A9        1.73008   0.02993   0.04044   0.00872   0.05050   1.78058
   A10        2.05131  -0.01586  -0.02793  -0.00463  -0.03057   2.02074
   A11        2.05126  -0.01586  -0.02791  -0.00464  -0.03056   2.02070
   A12        2.05118  -0.01582  -0.02788  -0.00452  -0.03041   2.02076
    D1       -1.04676   0.00002  -0.00016   0.00367   0.00351  -1.04325
    D2        1.04775   0.00000  -0.00020   0.00362   0.00342   1.05118
    D3       -3.14116   0.00002  -0.00016   0.00370   0.00354  -3.13762
    D4        1.04786   0.00000  -0.00025   0.00370   0.00346   1.05132
    D5       -3.14081  -0.00002  -0.00029   0.00366   0.00337  -3.13744
    D6       -1.04654   0.00001  -0.00024   0.00373   0.00349  -1.04305
    D7       -3.14072  -0.00001  -0.00032   0.00373   0.00341  -3.13731
    D8       -1.04621  -0.00003  -0.00036   0.00368   0.00333  -1.04288
    D9        1.04807  -0.00001  -0.00031   0.00376   0.00344   1.05151
         Item               Value     Threshold  Converged?
 Maximum Force            0.029933     0.000450     NO 
 RMS     Force            0.011688     0.000300     NO 
 Maximum Displacement     0.103608     0.001800     NO 
 RMS     Displacement     0.043414     0.001200     NO 
 Predicted change in Energy=-3.449213D-03
 GradGradGradGradGradGradGradGradGradGradGradGradGradGradGradGradGradGrad

                          Input orientation:                          
 ---------------------------------------------------------------------
 Center     Atomic      Atomic             Coordinates (Angstroms)
 Number     Number       Type             X           Y           Z
 ---------------------------------------------------------------------
      1          6           0        1.066469    0.068924   -0.049277
      2          9           0        0.563967    0.771594   -1.096586
      3          9           0        0.544378   -1.181219   -0.137928
      4          9           0        0.545093    0.625567    1.073833
      5         16           0        2.962000    0.058430   -0.033459
      6          8           0        3.280654   -0.581674   -1.344673
      7          8           0        3.280253    1.513729    0.073302
      8          8           0        3.258377   -0.761942    1.178838
 ---------------------------------------------------------------------
                    Distance matrix (angstroms):
                    1          2          3          4          5
     1  C    0.000000
     2  F    1.357612   0.000000
     3  F    1.357681   2.175520   0.000000
     4  F    1.357594   2.175408   2.175510   0.000000
     5  S    1.895626   2.718346   2.718923   2.718304   0.000000
     6  O    2.646496   3.045204   3.050065   3.845763   1.493505
     7  O    2.646379   3.049199   3.846086   3.044830   1.493512
     8  O    2.646330   3.845664   3.045564   3.049281   1.493490
                    6          7          8
     6  O    0.000000
     7  O    2.530093   0.000000
     8  O    2.530040   2.530093   0.000000
 Stoichiometry    CF3O3S(1-)
 Framework group  C1[X(CF3O3S)]
 Deg. of freedom    18
 Full point group                 C1      NOp   1
 Largest Abelian subgroup         C1      NOp   1
 Largest concise Abelian subgroup C1      NOp   1
                         Standard orientation:                         
 ---------------------------------------------------------------------
 Center     Atomic      Atomic             Coordinates (Angstroms)
 Number     Number       Type             X           Y           Z
 ---------------------------------------------------------------------
      1          6           0        0.950373   -0.000071    0.000028
      2          9           0        1.465456    0.658312    1.069763
      3          9           0        1.466262   -1.255429    0.035120
      4          9           0        1.465451    0.597523   -1.104796
      5         16           0       -0.945253   -0.000078   -0.000009
      6          8           0       -1.256515   -0.689509    1.287764
      7          8           0       -1.256329    1.459926   -0.046890
      8          8           0       -1.256245   -0.770665   -1.240974
 ---------------------------------------------------------------------
 Rotational constants (GHZ):      2.6280505      1.5148939      1.5148542
 Standard basis: CC-pVDZ (5D, 7F)
 There are   124 symmetry adapted cartesian basis functions of A   symmetry.
 There are   116 symmetry adapted basis functions of A   symmetry.
   116 basis functions,   302 primitive gaussians,   124 cartesian basis functions
    37 alpha electrons       37 beta electrons
       nuclear repulsion energy       542.8929830758 Hartrees.
 NAtoms=    8 NActive=    8 NUniq=    8 SFac= 1.00D+00 NAtFMM=   60 NAOKFM=F Big=F
 Integral buffers will be    131072 words long.
 Raffenetti 2 integral format.
 Two-electron integral symmetry is turned on.
 One-electron integrals computed using PRISM.
 NBasis=   116 RedAO= T EigKep=  6.36D-03  NBF=   116
 NBsUse=   116 1.00D-06 EigRej= -1.00D+00 NBFU=   116
 Initial guess from the checkpoint file:  "otf.chk"
 B after Tr=     0.000000    0.000000    0.000000
         Rot=    0.987837    0.155491   -0.000036    0.000041 Ang=  17.89 deg.
 ExpMin= 1.41D-01 ExpMax= 1.11D+05 ExpMxC= 1.07D+03 IAcc=2 IRadAn=         4 AccDes= 0.00D+00
 Harris functional with IExCor=  402 and IRadAn=       4 diagonalized for initial guess.
 HarFok:  IExCor=  402 AccDes= 0.00D+00 IRadAn=         4 IDoV= 1 UseB2=F ITyADJ=14
 ICtDFT=  3500011 ScaDFX=  1.000000  1.000000  1.000000  1.000000
 FoFCou: FMM=F IPFlag=           0 FMFlag=      100000 FMFlg1=           0
         NFxFlg=           0 DoJE=T BraDBF=F KetDBF=T FulRan=T
         wScrn=  0.000000 ICntrl=     500 IOpCl=  0 I1Cent=   200000004 NGrid=           0
         NMat0=    1 NMatS0=      1 NMatT0=    0 NMatD0=    1 NMtDS0=    0 NMtDT0=    0
 Petite list used in FoFCou.
 Keep R1 ints in memory in canonical form, NReq=24071139.
 Requested convergence on RMS density matrix=1.00D-08 within 128 cycles.
 Requested convergence on MAX density matrix=1.00D-06.
 Requested convergence on             energy=1.00D-06.
 No special actions if energy rises.
 Integral accuracy reduced to 1.0D-05 until final iterations.
 Initial convergence to 1.0D-05 achieved.  Increase integral accuracy.
 SCF Done:  E(RB3LYP) =  -961.524939065     A.U. after   12 cycles
            NFock= 12  Conv=0.59D-08     -V/T= 2.0038
 Calling FoFJK, ICntrl=      2127 FMM=F ISym2X=0 I1Cent= 0 IOpClX= 0 NMat=1 NMatS=1 NMatT=0.
 ***** Axes restored to original set *****
 -------------------------------------------------------------------
 Center     Atomic                   Forces (Hartrees/Bohr)
 Number     Number              X              Y              Z
 -------------------------------------------------------------------
      1        6          -0.003039539    0.000022714   -0.000040194
      2        9           0.000788272   -0.000249181    0.000342128
      3        9           0.000924979    0.000476165    0.000037596
      4        9           0.000784172   -0.000211366   -0.000348491
      5       16          -0.000990001   -0.000030310   -0.000043648
      6        8           0.000550026   -0.001079564   -0.002213821
      7        8           0.000479833    0.002465928    0.000175410
      8        8           0.000502258   -0.001394386    0.002091021
 -------------------------------------------------------------------
 Cartesian Forces:  Max     0.003039539 RMS     0.001157744

 GradGradGradGradGradGradGradGradGradGradGradGradGradGradGradGradGradGrad
 Berny optimization.
 Using GEDIIS/GDIIS optimizer.
 FormGI is forming the generalized inverse of G from B-inverse, IUseBI=4.
 Internal  Forces:  Max     0.002565829 RMS     0.000934237
 Search for a local minimum.
 Step number   3 out of a maximum of  100
 All quantities printed in internal units (Hartrees-Bohrs-Radians)
 Mixed Optimization -- En-DIIS/RFO-DIIS
 Update second derivatives using D2CorX and points    1    2    3
 DE= -3.22D-03 DEPred=-3.45D-03 R= 9.34D-01
 TightC=F SS=  1.41D+00  RLast= 1.09D-01 DXNew= 5.0454D-01 3.2550D-01
 Trust test= 9.34D-01 RLast= 1.09D-01 DXMaxT set to 3.26D-01
 ITU=  1  0  0
 Use linear search instead of GDIIS.
     Eigenvalues ---    0.00230   0.08020   0.08026   0.10918   0.10919
     Eigenvalues ---    0.20394   0.24736   0.25000   0.25000   0.25000
     Eigenvalues ---    0.25000   0.47655   0.50618   0.50619   0.57643
     Eigenvalues ---    0.72214   0.87817   0.87818
 RFO step:  Lambda=-4.99765955D-05 EMin= 2.30008325D-03
 Quartic linear search produced a step of  0.01692.
 Iteration  1 RMS(Cart)=  0.00194469 RMS(Int)=  0.00001761
 Iteration  2 RMS(Cart)=  0.00000407 RMS(Int)=  0.00001707
 Iteration  3 RMS(Cart)=  0.00000000 RMS(Int)=  0.00001707
 Variable       Old X    -DE/DX   Delta X   Delta X   Delta X     New X
                                 (Linear)    (Quad)   (Total)
    R1        2.56551  -0.00068  -0.00008  -0.00185  -0.00193   2.56359
    R2        2.56565  -0.00080  -0.00008  -0.00211  -0.00218   2.56346
    R3        2.56548  -0.00067  -0.00008  -0.00183  -0.00190   2.56358
    R4        3.58221   0.00054   0.00046   0.00370   0.00416   3.58638
    R5        2.82232   0.00253   0.00020   0.00379   0.00399   2.82631
    R6        2.82233   0.00251   0.00020   0.00376   0.00396   2.82629
    R7        2.82229   0.00257   0.00020   0.00383   0.00403   2.82632
    A1        1.85863   0.00079  -0.00004   0.00344   0.00340   1.86203
    A2        1.85858   0.00074  -0.00004   0.00353   0.00349   1.86207
    A3        1.95997  -0.00065   0.00003  -0.00283  -0.00280   1.95717
    A4        1.85863   0.00078  -0.00004   0.00336   0.00332   1.86196
    A5        1.96057  -0.00081   0.00003  -0.00371  -0.00368   1.95688
    A6        1.95993  -0.00065   0.00003  -0.00287  -0.00284   1.95710
    A7        1.78073   0.00001   0.00085  -0.00029   0.00053   1.78126
    A8        1.78061  -0.00010   0.00085  -0.00077   0.00005   1.78067
    A9        1.78058  -0.00002   0.00085  -0.00042   0.00040   1.78099
   A10        2.02074   0.00003  -0.00052   0.00034  -0.00022   2.02052
   A11        2.02070   0.00001  -0.00052   0.00031  -0.00025   2.02046
   A12        2.02076   0.00003  -0.00051   0.00035  -0.00020   2.02056
    D1       -1.04325   0.00002   0.00006  -0.00056  -0.00050  -1.04375
    D2        1.05118   0.00001   0.00006  -0.00058  -0.00052   1.05065
    D3       -3.13762   0.00001   0.00006  -0.00064  -0.00058  -3.13820
    D4        1.05132   0.00000   0.00006  -0.00076  -0.00070   1.05063
    D5       -3.13744   0.00000   0.00006  -0.00078  -0.00072  -3.13816
    D6       -1.04305  -0.00001   0.00006  -0.00083  -0.00077  -1.04382
    D7       -3.13731  -0.00002   0.00006  -0.00108  -0.00102  -3.13833
    D8       -1.04288  -0.00003   0.00006  -0.00110  -0.00105  -1.04393
    D9        1.05151  -0.00003   0.00006  -0.00116  -0.00110   1.05041
         Item               Value     Threshold  Converged?
 Maximum Force            0.002566     0.000450     NO 
 RMS     Force            0.000934     0.000300     NO 
 Maximum Displacement     0.005782     0.001800     NO 
 RMS     Displacement     0.001945     0.001200     NO 
 Predicted change in Energy=-2.565545D-05
 GradGradGradGradGradGradGradGradGradGradGradGradGradGradGradGradGradGrad

                          Input orientation:                          
 ---------------------------------------------------------------------
 Center     Atomic      Atomic             Coordinates (Angstroms)
 Number     Number       Type             X           Y           Z
 ---------------------------------------------------------------------
      1          6           0        1.063410    0.069208   -0.049301
      2          9           0        0.564935    0.772447   -1.096830
      3          9           0        0.546124   -1.181642   -0.138461
      4          9           0        0.546108    0.625343    1.074727
      5         16           0        2.961141    0.058311   -0.033504
      6          8           0        3.280859   -0.583080   -1.346237
      7          8           0        3.280223    1.515604    0.072935
      8          8           0        3.258390   -0.762780    1.180722
 ---------------------------------------------------------------------
                    Distance matrix (angstroms):
                    1          2          3          4          5
     1  C    0.000000
     2  F    1.356591   0.000000
     3  F    1.356525   2.176531   0.000000
     4  F    1.356586   2.176615   2.176469   0.000000
     5  S    1.897829   2.717068   2.716764   2.717000   0.000000
     6  O    2.650397   3.045637   3.048897   3.847105   1.495616
     7  O    2.649766   3.048511   3.846442   3.044919   1.495608
     8  O    2.650113   3.846929   3.045009   3.048703   1.495624
                    6          7          8
     6  O    0.000000
     7  O    2.533480   0.000000
     8  O    2.533440   2.533515   0.000000
 Stoichiometry    CF3O3S(1-)
 Framework group  C1[X(CF3O3S)]
 Deg. of freedom    18
 Full point group                 C1      NOp   1
 Largest Abelian subgroup         C1      NOp   1
 Largest concise Abelian subgroup C1      NOp   1
                         Standard orientation:                         
 ---------------------------------------------------------------------
 Center     Atomic      Atomic             Coordinates (Angstroms)
 Number     Number       Type             X           Y           Z
 ---------------------------------------------------------------------
      1          6           0        0.953475    0.000032    0.000101
      2          9           0        1.464683    1.256217   -0.031621
      3          9           0        1.464181   -0.600559    1.104017
      4          9           0        1.464699   -0.655793   -1.071752
      5         16           0       -0.944354    0.000030   -0.000094
      6          8           0       -1.256941    0.767430    1.244998
      7          8           0       -1.255805    0.694715   -1.287439
      8          8           0       -1.256411   -1.462076    0.041828
 ---------------------------------------------------------------------
 Rotational constants (GHZ):      2.6230963      1.5148850      1.5148598
 Standard basis: CC-pVDZ (5D, 7F)
 There are   124 symmetry adapted cartesian basis functions of A   symmetry.
 There are   116 symmetry adapted basis functions of A   symmetry.
   116 basis functions,   302 primitive gaussians,   124 cartesian basis functions
    37 alpha electrons       37 beta electrons
       nuclear repulsion energy       542.6475700496 Hartrees.
 NAtoms=    8 NActive=    8 NUniq=    8 SFac= 1.00D+00 NAtFMM=   60 NAOKFM=F Big=F
 Integral buffers will be    131072 words long.
 Raffenetti 2 integral format.
 Two-electron integral symmetry is turned on.
 One-electron integrals computed using PRISM.
 NBasis=   116 RedAO= T EigKep=  6.40D-03  NBF=   116
 NBsUse=   116 1.00D-06 EigRej= -1.00D+00 NBFU=   116
 Initial guess from the checkpoint file:  "otf.chk"
 B after Tr=     0.000000    0.000000    0.000000
         Rot=    0.866777    0.498697    0.000094    0.000119 Ang=  59.83 deg.
 Keep R1 ints in memory in canonical form, NReq=24071139.
 Requested convergence on RMS density matrix=1.00D-08 within 128 cycles.
 Requested convergence on MAX density matrix=1.00D-06.
 Requested convergence on             energy=1.00D-06.
 No special actions if energy rises.
 SCF Done:  E(RB3LYP) =  -961.524966976     A.U. after    9 cycles
            NFock=  9  Conv=0.73D-08     -V/T= 2.0038
 Calling FoFJK, ICntrl=      2127 FMM=F ISym2X=0 I1Cent= 0 IOpClX= 0 NMat=1 NMatS=1 NMatT=0.
 ***** Axes restored to original set *****
 -------------------------------------------------------------------
 Center     Atomic                   Forces (Hartrees/Bohr)
 Number     Number              X              Y              Z
 -------------------------------------------------------------------
      1        6           0.000064834   -0.000012265   -0.000010760
      2        9           0.000039747   -0.000191416    0.000305131
      3        9          -0.000076360    0.000288543   -0.000000291
      4        9          -0.000026404   -0.000132410   -0.000313428
      5       16          -0.000186076    0.000055258    0.000023908
      6        8           0.000048112   -0.000232458   -0.000456372
      7        8           0.000122145    0.000503504    0.000032543
      8        8           0.000014003   -0.000278757    0.000419269
 -------------------------------------------------------------------
 Cartesian Forces:  Max     0.000503504 RMS     0.000220549

 GradGradGradGradGradGradGradGradGradGradGradGradGradGradGradGradGradGrad
 Berny optimization.
 Using GEDIIS/GDIIS optimizer.
 FormGI is forming the generalized inverse of G from B-inverse, IUseBI=4.
 Internal  Forces:  Max     0.000525807 RMS     0.000215559
 Search for a local minimum.
 Step number   4 out of a maximum of  100
 All quantities printed in internal units (Hartrees-Bohrs-Radians)
 Mixed Optimization -- En-DIIS/RFO-DIIS
 Swapping is turned off.
 Update second derivatives using D2CorX and points    1    2    3    4
 DE= -2.79D-05 DEPred=-2.57D-05 R= 1.09D+00
 TightC=F SS=  1.41D+00  RLast= 1.22D-02 DXNew= 5.4743D-01 3.6493D-02
 Trust test= 1.09D+00 RLast= 1.22D-02 DXMaxT set to 3.26D-01
 ITU=  1  1  0  0
     Eigenvalues ---    0.00230   0.08074   0.08082   0.10912   0.10915
     Eigenvalues ---    0.20032   0.24885   0.25000   0.25000   0.25000
     Eigenvalues ---    0.29174   0.41730   0.50618   0.50679   0.57298
     Eigenvalues ---    0.65658   0.87818   0.87825
 En-DIIS/RFO-DIIS IScMMF=        0 using points:     4    3
 RFO step:  Lambda=-1.99017827D-06.
 DidBck=F Rises=F RFO-DIIS coefs:    1.08880   -0.08880
 Iteration  1 RMS(Cart)=  0.00128363 RMS(Int)=  0.00000069
 Iteration  2 RMS(Cart)=  0.00000066 RMS(Int)=  0.00000027
 Variable       Old X    -DE/DX   Delta X   Delta X   Delta X     New X
                                 (Linear)    (Quad)   (Total)
    R1        2.56359  -0.00036  -0.00017  -0.00079  -0.00096   2.56262
    R2        2.56346  -0.00023  -0.00019  -0.00051  -0.00071   2.56275
    R3        2.56358  -0.00030  -0.00017  -0.00067  -0.00084   2.56274
    R4        3.58638   0.00000   0.00037   0.00012   0.00049   3.58686
    R5        2.82631   0.00051   0.00035   0.00067   0.00103   2.82733
    R6        2.82629   0.00053   0.00035   0.00069   0.00104   2.82733
    R7        2.82632   0.00049   0.00036   0.00064   0.00100   2.82732
    A1        1.86203  -0.00018   0.00030  -0.00087  -0.00057   1.86145
    A2        1.86207  -0.00017   0.00031  -0.00093  -0.00062   1.86145
    A3        1.95717   0.00010  -0.00025   0.00041   0.00017   1.95734
    A4        1.86196  -0.00020   0.00029  -0.00081  -0.00052   1.86144
    A5        1.95688   0.00023  -0.00033   0.00113   0.00080   1.95769
    A6        1.95710   0.00018  -0.00025   0.00085   0.00060   1.95770
    A7        1.78126  -0.00015   0.00005  -0.00050  -0.00045   1.78081
    A8        1.78067   0.00003   0.00000   0.00035   0.00035   1.78102
    A9        1.78099  -0.00015   0.00004  -0.00047  -0.00043   1.78055
   A10        2.02052   0.00004  -0.00002   0.00006   0.00004   2.02056
   A11        2.02046   0.00009  -0.00002   0.00019   0.00017   2.02062
   A12        2.02056   0.00005  -0.00002   0.00017   0.00016   2.02071
    D1       -1.04375  -0.00002  -0.00004  -0.00190  -0.00195  -1.04569
    D2        1.05065  -0.00001  -0.00005  -0.00189  -0.00194   1.04871
    D3       -3.13820   0.00000  -0.00005  -0.00175  -0.00180  -3.13999
    D4        1.05063  -0.00002  -0.00006  -0.00194  -0.00200   1.04862
    D5       -3.13816  -0.00002  -0.00006  -0.00193  -0.00199  -3.14015
    D6       -1.04382   0.00000  -0.00007  -0.00179  -0.00185  -1.04568
    D7       -3.13833   0.00001  -0.00009  -0.00159  -0.00168  -3.14001
    D8       -1.04393   0.00001  -0.00009  -0.00158  -0.00168  -1.04560
    D9        1.05041   0.00002  -0.00010  -0.00144  -0.00154   1.04887
         Item               Value     Threshold  Converged?
 Maximum Force            0.000526     0.000450     NO 
 RMS     Force            0.000216     0.000300     YES
 Maximum Displacement     0.002932     0.001800     NO 
 RMS     Displacement     0.001284     0.001200     NO 
 Predicted change in Energy=-1.594753D-06
 GradGradGradGradGradGradGradGradGradGradGradGradGradGradGradGradGradGrad

                          Input orientation:                          
 ---------------------------------------------------------------------
 Center     Atomic      Atomic             Coordinates (Angstroms)
 Number     Number       Type             X           Y           Z
 ---------------------------------------------------------------------
      1          6           0        1.063518    0.069034   -0.049205
      2          9           0        0.564845    0.773033   -1.095469
      3          9           0        0.545619   -1.181055   -0.139773
      4          9           0        0.545559    0.623791    1.074664
      5         16           0        2.961510    0.058505   -0.033479
      6          8           0        3.280749   -0.584203   -1.346304
      7          8           0        3.280956    1.516369    0.071786
      8          8           0        3.258435   -0.762064    1.181829
 ---------------------------------------------------------------------
                    Distance matrix (angstroms):
                    1          2          3          4          5
     1  C    0.000000
     2  F    1.356081   0.000000
     3  F    1.356151   2.175358   0.000000
     4  F    1.356142   2.175345   2.175391   0.000000
     5  S    1.898086   2.717053   2.717414   2.717416   0.000000
     6  O    2.650527   3.046496   3.048423   3.847285   1.496161
     7  O    2.650744   3.048326   3.847456   3.047106   1.496160
     8  O    2.650251   3.846822   3.046564   3.048241   1.496152
                    6          7          8
     6  O    0.000000
     7  O    2.534440   0.000000
     8  O    2.534481   2.534553   0.000000
 Stoichiometry    CF3O3S(1-)
 Framework group  C1[X(CF3O3S)]
 Deg. of freedom    18
 Full point group                 C1      NOp   1
 Largest Abelian subgroup         C1      NOp   1
 Largest concise Abelian subgroup C1      NOp   1
                         Standard orientation:                         
 ---------------------------------------------------------------------
 Center     Atomic      Atomic             Coordinates (Angstroms)
 Number     Number       Type             X           Y           Z
 ---------------------------------------------------------------------
      1          6           0        0.953386    0.000078    0.000002
      2          9           0        1.464490    1.074212    0.651130
      3          9           0        1.465155   -1.100651    0.604678
      4          9           0        1.465125    0.027056   -1.255592
      5         16           0       -0.944700   -0.000094   -0.000062
      6          8           0       -1.256657   -0.029186    1.462926
      7          8           0       -1.257007    1.281338   -0.706385
      8          8           0       -1.256092   -1.252717   -0.756661
 ---------------------------------------------------------------------
 Rotational constants (GHZ):      2.6232998      1.5144170      1.5143965
 Standard basis: CC-pVDZ (5D, 7F)
 There are   124 symmetry adapted cartesian basis functions of A   symmetry.
 There are   116 symmetry adapted basis functions of A   symmetry.
   116 basis functions,   302 primitive gaussians,   124 cartesian basis functions
    37 alpha electrons       37 beta electrons
       nuclear repulsion energy       542.5988020799 Hartrees.
 NAtoms=    8 NActive=    8 NUniq=    8 SFac= 1.00D+00 NAtFMM=   60 NAOKFM=F Big=F
 Integral buffers will be    131072 words long.
 Raffenetti 2 integral format.
 Two-electron integral symmetry is turned on.
 One-electron integrals computed using PRISM.
 NBasis=   116 RedAO= T EigKep=  6.40D-03  NBF=   116
 NBsUse=   116 1.00D-06 EigRej= -1.00D+00 NBFU=   116
 Initial guess from the checkpoint file:  "otf.chk"
 B after Tr=     0.000000    0.000000    0.000000
         Rot=    0.959476   -0.281792   -0.000091   -0.000146 Ang= -32.73 deg.
 Keep R1 ints in memory in canonical form, NReq=24071139.
 Requested convergence on RMS density matrix=1.00D-08 within 128 cycles.
 Requested convergence on MAX density matrix=1.00D-06.
 Requested convergence on             energy=1.00D-06.
 No special actions if energy rises.
 SCF Done:  E(RB3LYP) =  -961.524968266     A.U. after    8 cycles
            NFock=  8  Conv=0.34D-08     -V/T= 2.0038
 Calling FoFJK, ICntrl=      2127 FMM=F ISym2X=0 I1Cent= 0 IOpClX= 0 NMat=1 NMatS=1 NMatT=0.
 ***** Axes restored to original set *****
 -------------------------------------------------------------------
 Center     Atomic                   Forces (Hartrees/Bohr)
 Number     Number              X              Y              Z
 -------------------------------------------------------------------
      1        6           0.000063370    0.000019061    0.000003272
      2        9          -0.000045200    0.000108955   -0.000147784
      3        9          -0.000002114   -0.000131682   -0.000004280
      4        9           0.000072281    0.000042998    0.000120874
      5       16          -0.000051916   -0.000016824    0.000009183
      6        8          -0.000055620    0.000012117    0.000029994
      7        8          -0.000005783   -0.000054814    0.000000751
      8        8           0.000024982    0.000020189   -0.000012010
 -------------------------------------------------------------------
 Cartesian Forces:  Max     0.000147784 RMS     0.000061444

 GradGradGradGradGradGradGradGradGradGradGradGradGradGradGradGradGradGrad
 Berny optimization.
 Using GEDIIS/GDIIS optimizer.
 FormGI is forming the generalized inverse of G from B-inverse, IUseBI=4.
 Internal  Forces:  Max     0.000190253 RMS     0.000068427
 Search for a local minimum.
 Step number   5 out of a maximum of  100
 All quantities printed in internal units (Hartrees-Bohrs-Radians)
 Mixed Optimization -- En-DIIS/RFO-DIIS
 Swapping is turned off.
 Update second derivatives using D2CorX and points    1    2    3    4    5
 DE= -1.29D-06 DEPred=-1.59D-06 R= 8.09D-01
 TightC=F SS=  1.41D+00  RLast= 6.19D-03 DXNew= 5.4743D-01 1.8566D-02
 Trust test= 8.09D-01 RLast= 6.19D-03 DXMaxT set to 3.26D-01
 ITU=  1  1  1  0  0
     Eigenvalues ---    0.00223   0.08066   0.08112   0.10914   0.10936
     Eigenvalues ---    0.20649   0.24266   0.25000   0.25000   0.25227
     Eigenvalues ---    0.30229   0.48964   0.50626   0.54121   0.56422
     Eigenvalues ---    0.62208   0.87818   0.87919
 En-DIIS/RFO-DIIS IScMMF=        0 using points:     5    4    3
 RFO step:  Lambda=-1.95241402D-07.
 DidBck=T Rises=F RFO-DIIS coefs:    0.78561    0.23910   -0.02471
 Iteration  1 RMS(Cart)=  0.00081222 RMS(Int)=  0.00000028
 Iteration  2 RMS(Cart)=  0.00000029 RMS(Int)=  0.00000003
 Variable       Old X    -DE/DX   Delta X   Delta X   Delta X     New X
                                 (Linear)    (Quad)   (Total)
    R1        2.56262   0.00019   0.00016   0.00012   0.00028   2.56290
    R2        2.56275   0.00013   0.00010   0.00010   0.00020   2.56295
    R3        2.56274   0.00008   0.00013  -0.00002   0.00012   2.56285
    R4        3.58686  -0.00009   0.00000  -0.00036  -0.00036   3.58650
    R5        2.82733  -0.00005  -0.00012   0.00006  -0.00006   2.82728
    R6        2.82733  -0.00005  -0.00013   0.00007  -0.00005   2.82728
    R7        2.82732  -0.00001  -0.00011   0.00009  -0.00002   2.82729
    A1        1.86145   0.00005   0.00021  -0.00007   0.00014   1.86160
    A2        1.86145   0.00009   0.00022   0.00003   0.00025   1.86169
    A3        1.95734   0.00000  -0.00010   0.00019   0.00008   1.95742
    A4        1.86144   0.00010   0.00019  -0.00004   0.00016   1.86159
    A5        1.95769  -0.00007  -0.00026   0.00011  -0.00015   1.95753
    A6        1.95770  -0.00015  -0.00020  -0.00023  -0.00042   1.95727
    A7        1.78081  -0.00007   0.00011  -0.00032  -0.00021   1.78061
    A8        1.78102  -0.00001  -0.00007   0.00007  -0.00001   1.78101
    A9        1.78055   0.00006   0.00010   0.00010   0.00020   1.78075
   A10        2.02056   0.00003  -0.00001   0.00006   0.00005   2.02061
   A11        2.02062   0.00001  -0.00004   0.00012   0.00007   2.02070
   A12        2.02071  -0.00002  -0.00004  -0.00008  -0.00011   2.02060
    D1       -1.04569   0.00000   0.00040  -0.00169  -0.00129  -1.04698
    D2        1.04871   0.00000   0.00040  -0.00171  -0.00131   1.04740
    D3       -3.13999  -0.00001   0.00037  -0.00174  -0.00137  -3.14136
    D4        1.04862   0.00001   0.00041  -0.00157  -0.00116   1.04747
    D5       -3.14015   0.00001   0.00041  -0.00159  -0.00118  -3.14133
    D6       -1.04568   0.00000   0.00038  -0.00161  -0.00123  -1.04691
    D7       -3.14001  -0.00001   0.00034  -0.00170  -0.00136  -3.14137
    D8       -1.04560  -0.00001   0.00033  -0.00172  -0.00139  -1.04699
    D9        1.04887  -0.00002   0.00030  -0.00174  -0.00144   1.04743
         Item               Value     Threshold  Converged?
 Maximum Force            0.000190     0.000450     YES
 RMS     Force            0.000068     0.000300     YES
 Maximum Displacement     0.001892     0.001800     NO 
 RMS     Displacement     0.000812     0.001200     YES
 Predicted change in Energy=-1.684019D-07
 GradGradGradGradGradGradGradGradGradGradGradGradGradGradGradGradGradGrad

                          Input orientation:                          
 ---------------------------------------------------------------------
 Center     Atomic      Atomic             Coordinates (Angstroms)
 Number     Number       Type             X           Y           Z
 ---------------------------------------------------------------------
      1          6           0        1.063556    0.069050   -0.049340
      2          9           0        0.564857    0.773913   -1.095200
      3          9           0        0.545802   -1.181149   -0.140774
      4          9           0        0.545981    0.622984    1.075188
      5         16           0        2.961355    0.058485   -0.033403
      6          8           0        3.280415   -0.584923   -1.345893
      7          8           0        3.280805    1.516375    0.071103
      8          8           0        3.258418   -0.761324    1.182368
 ---------------------------------------------------------------------
                    Distance matrix (angstroms):
                    1          2          3          4          5
     1  C    0.000000
     2  F    1.356229   0.000000
     3  F    1.356255   2.175675   0.000000
     4  F    1.356204   2.175712   2.175652   0.000000
     5  S    1.897895   2.717068   2.717190   2.716922   0.000000
     6  O    2.650131   3.046890   3.047279   3.846791   1.496130
     7  O    2.650556   3.047604   3.847307   3.047228   1.496132
     8  O    2.650292   3.847018   3.047170   3.047149   1.496140
                    6          7          8
     6  O    0.000000
     7  O    2.534429   0.000000
     8  O    2.534503   2.534428   0.000000
 Stoichiometry    CF3O3S(1-)
 Framework group  C1[X(CF3O3S)]
 Deg. of freedom    18
 Full point group                 C1      NOp   1
 Largest Abelian subgroup         C1      NOp   1
 Largest concise Abelian subgroup C1      NOp   1
                         Standard orientation:                         
 ---------------------------------------------------------------------
 Center     Atomic      Atomic             Coordinates (Angstroms)
 Number     Number       Type             X           Y           Z
 ---------------------------------------------------------------------
      1          6           0        0.953340   -0.000014   -0.000096
      2          9           0        1.464693    1.132374   -0.543763
      3          9           0        1.464994   -0.095503    1.252310
      4          9           0        1.464440   -1.037050   -0.709054
      5         16           0       -0.944555    0.000028    0.000085
      6          8           0       -1.256054    1.208250    0.825659
      7          8           0       -1.256888    0.110879   -1.458878
      8          8           0       -1.256344   -1.318973    0.633692
 ---------------------------------------------------------------------
 Rotational constants (GHZ):      2.6229869      1.5146626      1.5146318
 Standard basis: CC-pVDZ (5D, 7F)
 There are   124 symmetry adapted cartesian basis functions of A   symmetry.
 There are   116 symmetry adapted basis functions of A   symmetry.
   116 basis functions,   302 primitive gaussians,   124 cartesian basis functions
    37 alpha electrons       37 beta electrons
       nuclear repulsion energy       542.6087126835 Hartrees.
 NAtoms=    8 NActive=    8 NUniq=    8 SFac= 1.00D+00 NAtFMM=   60 NAOKFM=F Big=F
 Integral buffers will be    131072 words long.
 Raffenetti 2 integral format.
 Two-electron integral symmetry is turned on.
 One-electron integrals computed using PRISM.
 NBasis=   116 RedAO= T EigKep=  6.40D-03  NBF=   116
 NBsUse=   116 1.00D-06 EigRej= -1.00D+00 NBFU=   116
 Initial guess from the checkpoint file:  "otf.chk"
 B after Tr=     0.000000    0.000000    0.000000
         Rot=    0.879540    0.475825   -0.000066    0.000085 Ang=  56.83 deg.
 Keep R1 ints in memory in canonical form, NReq=24071139.
 Requested convergence on RMS density matrix=1.00D-08 within 128 cycles.
 Requested convergence on MAX density matrix=1.00D-06.
 Requested convergence on             energy=1.00D-06.
 No special actions if energy rises.
 SCF Done:  E(RB3LYP) =  -961.524967311     A.U. after    7 cycles
            NFock=  7  Conv=0.83D-08     -V/T= 2.0038
 Calling FoFJK, ICntrl=      2127 FMM=F ISym2X=0 I1Cent= 0 IOpClX= 0 NMat=1 NMatS=1 NMatT=0.
 ***** Axes restored to original set *****
 -------------------------------------------------------------------
 Center     Atomic                   Forces (Hartrees/Bohr)
 Number     Number              X              Y              Z
 -------------------------------------------------------------------
      1        6           0.000052603   -0.000013941    0.000010578
      2        9          -0.000034137    0.000019363   -0.000025964
      3        9           0.000060023    0.000000439   -0.000013761
      4        9          -0.000040233    0.000021957    0.000045946
      5       16          -0.000048115   -0.000020616    0.000023648
      6        8           0.000013031   -0.000017115   -0.000011100
      7        8          -0.000042149   -0.000015614    0.000000520
      8        8           0.000038977    0.000025528   -0.000029867
 -------------------------------------------------------------------
 Cartesian Forces:  Max     0.000060023 RMS     0.000030455

 GradGradGradGradGradGradGradGradGradGradGradGradGradGradGradGradGradGrad
 Berny optimization.
 Using GEDIIS/GDIIS optimizer.
 FormGI is forming the generalized inverse of G from B-inverse, IUseBI=4.
 Internal  Forces:  Max     0.000082835 RMS     0.000035471
 Search for a local minimum.
 Step number   6 out of a maximum of  100
 All quantities printed in internal units (Hartrees-Bohrs-Radians)
 Mixed Optimization -- En-DIIS/RFO-DIIS
 Swapping is turned off.
 Update second derivatives using D2CorX and points    1    2    3    4    5
                                                      6
 DE=  9.55D-07 DEPred=-1.68D-07 R=-5.67D+00
 Trust test=-5.67D+00 RLast= 4.00D-03 DXMaxT set to 1.63D-01
 ITU= -1  1  1  1  0  0
     Eigenvalues ---    0.00139   0.07995   0.08473   0.10883   0.10934
     Eigenvalues ---    0.17178   0.22358   0.24899   0.25000   0.27141
     Eigenvalues ---    0.34850   0.46038   0.50105   0.55345   0.62008
     Eigenvalues ---    0.69167   0.87759   0.91804
 En-DIIS/RFO-DIIS IScMMF=        0 using points:     6    5    4    3
 RFO step:  Lambda=-7.08346201D-08.
 DidBck=T Rises=F RFO-DIIS coefs:    0.75656    0.05710    0.21227   -0.02593
 Iteration  1 RMS(Cart)=  0.00147674 RMS(Int)=  0.00000091
 Iteration  2 RMS(Cart)=  0.00000095 RMS(Int)=  0.00000004
 Variable       Old X    -DE/DX   Delta X   Delta X   Delta X     New X
                                 (Linear)    (Quad)   (Total)
    R1        2.56290   0.00005   0.00006   0.00014   0.00020   2.56310
    R2        2.56295  -0.00003   0.00003   0.00001   0.00004   2.56299
    R3        2.56285   0.00006   0.00008   0.00005   0.00013   2.56298
    R4        3.58650  -0.00004   0.00010  -0.00048  -0.00037   3.58613
    R5        2.82728   0.00002  -0.00007   0.00011   0.00003   2.82731
    R6        2.82728  -0.00003  -0.00008   0.00007  -0.00001   2.82727
    R7        2.82729  -0.00002  -0.00008   0.00009   0.00001   2.82730
    A1        1.86160   0.00002   0.00016  -0.00013   0.00003   1.86163
    A2        1.86169  -0.00003   0.00015  -0.00009   0.00006   1.86175
    A3        1.95742   0.00002  -0.00012   0.00023   0.00011   1.95752
    A4        1.86159   0.00003   0.00015   0.00004   0.00018   1.86178
    A5        1.95753  -0.00008  -0.00021  -0.00013  -0.00034   1.95720
    A6        1.95727   0.00004  -0.00008   0.00006  -0.00002   1.95725
    A7        1.78061   0.00002   0.00015  -0.00026  -0.00011   1.78050
    A8        1.78101  -0.00007  -0.00006  -0.00016  -0.00022   1.78079
    A9        1.78075   0.00008   0.00004   0.00031   0.00035   1.78110
   A10        2.02061   0.00002  -0.00003   0.00014   0.00012   2.02073
   A11        2.02070  -0.00003  -0.00006   0.00002  -0.00004   2.02066
   A12        2.02060  -0.00001  -0.00001  -0.00008  -0.00009   2.02051
    D1       -1.04698   0.00001   0.00066  -0.00303  -0.00237  -1.04935
    D2        1.04740   0.00001   0.00067  -0.00303  -0.00236   1.04504
    D3       -3.14136   0.00000   0.00065  -0.00307  -0.00241   3.13941
    D4        1.04747  -0.00001   0.00064  -0.00312  -0.00249   1.04498
    D5       -3.14133  -0.00001   0.00064  -0.00312  -0.00248   3.13937
    D6       -1.04691  -0.00001   0.00063  -0.00316  -0.00254  -1.04945
    D7       -3.14137  -0.00001   0.00062  -0.00312  -0.00250   3.13931
    D8       -1.04699   0.00000   0.00062  -0.00312  -0.00250  -1.04949
    D9        1.04743  -0.00001   0.00061  -0.00316  -0.00255   1.04488
         Item               Value     Threshold  Converged?
 Maximum Force            0.000083     0.000450     YES
 RMS     Force            0.000035     0.000300     YES
 Maximum Displacement     0.003571     0.001800     NO 
 RMS     Displacement     0.001477     0.001200     NO 
 Predicted change in Energy=-1.435073D-07
 GradGradGradGradGradGradGradGradGradGradGradGradGradGradGradGradGradGrad

                          Input orientation:                          
 ---------------------------------------------------------------------
 Center     Atomic      Atomic             Coordinates (Angstroms)
 Number     Number       Type             X           Y           Z
 ---------------------------------------------------------------------
      1          6           0        1.063621    0.069161   -0.049367
      2          9           0        0.564882    0.775493   -1.094353
      3          9           0        0.546166   -1.181045   -0.142663
      4          9           0        0.546033    0.621523    1.076011
      5         16           0        2.961222    0.058388   -0.033332
      6          8           0        3.280110   -0.586432   -1.345191
      7          8           0        3.280511    1.516411    0.069692
      8          8           0        3.258644   -0.760089    1.183255
 ---------------------------------------------------------------------
                    Distance matrix (angstroms):
                    1          2          3          4          5
     1  C    0.000000
     2  F    1.356333   0.000000
     3  F    1.356275   2.175800   0.000000
     4  F    1.356273   2.175900   2.175872   0.000000
     5  S    1.897699   2.717066   2.716734   2.716781   0.000000
     6  O    2.649865   3.047987   3.045339   3.846628   1.496147
     7  O    2.650152   3.046079   3.846818   3.048093   1.496125
     8  O    2.650498   3.847319   3.048410   3.046081   1.496145
                    6          7          8
     6  O    0.000000
     7  O    2.534531   0.000000
     8  O    2.534493   2.534355   0.000000
 Stoichiometry    CF3O3S(1-)
 Framework group  C1[X(CF3O3S)]
 Deg. of freedom    18
 Full point group                 C1      NOp   1
 Largest Abelian subgroup         C1      NOp   1
 Largest concise Abelian subgroup C1      NOp   1
                         Standard orientation:                         
 ---------------------------------------------------------------------
 Center     Atomic      Atomic             Coordinates (Angstroms)
 Number     Number       Type             X           Y           Z
 ---------------------------------------------------------------------
      1          6           0        0.953266   -0.000139    0.000056
      2          9           0        1.464978    0.606100   -1.100065
      3          9           0        1.464386    0.649541    1.075301
      4          9           0        1.464294   -1.256200    0.025270
      5         16           0       -0.944433    0.000099   -0.000088
      6          8           0       -1.255695    1.463279   -0.026097
      7          8           0       -1.256299   -0.753867   -1.254147
      8          8           0       -1.256952   -0.708877    1.279808
 ---------------------------------------------------------------------
 Rotational constants (GHZ):      2.6227804      1.5148643      1.5148043
 Standard basis: CC-pVDZ (5D, 7F)
 There are   124 symmetry adapted cartesian basis functions of A   symmetry.
 There are   116 symmetry adapted basis functions of A   symmetry.
   116 basis functions,   302 primitive gaussians,   124 cartesian basis functions
    37 alpha electrons       37 beta electrons
       nuclear repulsion energy       542.6173263016 Hartrees.
 NAtoms=    8 NActive=    8 NUniq=    8 SFac= 1.00D+00 NAtFMM=   60 NAOKFM=F Big=F
 Integral buffers will be    131072 words long.
 Raffenetti 2 integral format.
 Two-electron integral symmetry is turned on.
 One-electron integrals computed using PRISM.
 NBasis=   116 RedAO= T EigKep=  6.40D-03  NBF=   116
 NBsUse=   116 1.00D-06 EigRej= -1.00D+00 NBFU=   116
 Initial guess from the checkpoint file:  "otf.chk"
 B after Tr=     0.000000    0.000000    0.000000
         Rot=    0.952596    0.304237    0.000116    0.000061 Ang=  35.42 deg.
 Keep R1 ints in memory in canonical form, NReq=24071139.
 Requested convergence on RMS density matrix=1.00D-08 within 128 cycles.
 Requested convergence on MAX density matrix=1.00D-06.
 Requested convergence on             energy=1.00D-06.
 No special actions if energy rises.
 SCF Done:  E(RB3LYP) =  -961.524968508     A.U. after    7 cycles
            NFock=  7  Conv=0.90D-08     -V/T= 2.0038
 Calling FoFJK, ICntrl=      2127 FMM=F ISym2X=0 I1Cent= 0 IOpClX= 0 NMat=1 NMatS=1 NMatT=0.
 ***** Axes restored to original set *****
 -------------------------------------------------------------------
 Center     Atomic                   Forces (Hartrees/Bohr)
 Number     Number              X              Y              Z
 -------------------------------------------------------------------
      1        6           0.000016801   -0.000005818    0.000015324
      2        9          -0.000009412   -0.000028013    0.000065812
      3        9          -0.000046817    0.000028921    0.000023204
      4        9           0.000021903   -0.000011161   -0.000051924
      5       16           0.000023752   -0.000007467   -0.000013928
      6        8          -0.000016132    0.000012466    0.000010788
      7        8           0.000016101    0.000007025   -0.000011781
      8        8          -0.000006195    0.000004048   -0.000037496
 -------------------------------------------------------------------
 Cartesian Forces:  Max     0.000065812 RMS     0.000025720

 GradGradGradGradGradGradGradGradGradGradGradGradGradGradGradGradGradGrad
 Berny optimization.
 Using GEDIIS/GDIIS optimizer.
 FormGI is forming the generalized inverse of G from B-inverse, IUseBI=4.
 Internal  Forces:  Max     0.000077516 RMS     0.000028367
 Search for a local minimum.
 Step number   7 out of a maximum of  100
 All quantities printed in internal units (Hartrees-Bohrs-Radians)
 Mixed Optimization -- En-DIIS/RFO-DIIS
 Swapping is turned off.
 Update second derivatives using D2CorX and points    1    2    3    4    5
                                                      6    7
 DE= -1.20D-06 DEPred=-1.44D-07 R= 8.34D+00
 TightC=F SS=  1.41D+00  RLast= 7.44D-03 DXNew= 2.7371D-01 2.2325D-02
 Trust test= 8.34D+00 RLast= 7.44D-03 DXMaxT set to 1.63D-01
 ITU=  1 -1  1  1  1  0  0
     Eigenvalues ---    0.00278   0.08249   0.08525   0.10899   0.10951
     Eigenvalues ---    0.18571   0.23093   0.24998   0.25153   0.30752
     Eigenvalues ---    0.37271   0.44809   0.50589   0.56436   0.58709
     Eigenvalues ---    0.68596   0.88306   0.90534
 En-DIIS/RFO-DIIS IScMMF=        0 using points:     7    6    5    4    3
[...]
     28 -0.165655D-01  0.843219D-02 -0.166094D-01 -0.160580D-01  0.893974D-02
               26            27            28 
     26  0.325353D-01
     27  0.813873D-02  0.337114D-01
     28  0.817513D-02  0.872657D-02  0.337243D-01
 Force constants in internal coordinates: 
                1             2             3             4             5 
      1  0.358614D+00
      2  0.497682D-01  0.357915D+00
      3  0.497849D-01  0.497626D-01  0.358536D+00
      4  0.106569D-02  0.103411D-02  0.106972D-02  0.134046D+00
      5  0.902227D-02  0.903863D-02  0.422386D-02  0.528052D-02  0.522433D+00
      6  0.904343D-02  0.423636D-02  0.904935D-02  0.529051D-02  0.496998D-02
      7  0.422024D-02  0.903552D-02  0.903009D-02  0.527880D-02  0.501934D-02
      8  0.282771D-01  0.281365D-01  0.555164D-02 -0.478842D-02 -0.496190D-02
      9  0.282898D-01  0.566776D-02  0.282232D-01 -0.481123D-02 -0.564803D-02
     10 -0.122594D-01 -0.221799D-01 -0.223861D-01  0.439863D-02  0.163365D-02
     11  0.549001D-02  0.281601D-01  0.281950D-01 -0.479461D-02 -0.568990D-02
     12 -0.221144D-01 -0.122962D-01 -0.220724D-01  0.434300D-02  0.170119D-02
     13 -0.223737D-01 -0.221854D-01 -0.122066D-01  0.442077D-02  0.115700D-01
     14 -0.280506D-02 -0.301555D-02  0.270506D-01  0.103252D-01  0.174845D-01
     15 -0.300341D-02  0.270954D-01 -0.300699D-02  0.102706D-01 -0.828547D-02
     16  0.270252D-01 -0.297050D-02 -0.282959D-02  0.103185D-01 -0.830964D-02
     17 -0.561311D-02 -0.435912D-02 -0.438765D-02 -0.698542D-02  0.255255D-02
     18 -0.440686D-02 -0.561078D-02 -0.440925D-02 -0.702661D-02  0.253400D-02
     19 -0.439066D-02 -0.436780D-02 -0.561188D-02 -0.698534D-02 -0.569004D-02
     20  0.404560D-02 -0.161379D-01  0.121199D-01  0.332038D-05  0.201768D-02
     21 -0.419915D-02 -0.119930D-01  0.162250D-01  0.101941D-04  0.818872D-02
     22 -0.100984D-03 -0.782895D-02  0.796813D-02  0.210484D-04 -0.412702D-02
     23  0.162707D-01 -0.416558D-02 -0.120740D-01 -0.708530D-05 -0.202947D-02
     24  0.802595D-02 -0.206202D-04 -0.796887D-02  0.000000D+00  0.414157D-02
     25  0.121241D-01  0.414341D-02 -0.162258D-01  0.106428D-04 -0.817417D-02
     26 -0.801434D-02  0.783569D-02  0.115849D-03 -0.110584D-04 -0.977456D-05
     27 -0.162591D-01  0.119806D-01  0.422099D-02 -0.418469D-05  0.616127D-02
     28 -0.121609D-01  0.161447D-01 -0.403589D-02  0.666967D-05 -0.615448D-02
                6             7             8             9            10 
      6  0.522562D+00
      7  0.498550D-02  0.522647D+00
      8 -0.564441D-02 -0.569184D-02  0.118133D+00
      9 -0.498779D-02 -0.564426D-02  0.351023D-01  0.118025D+00
     10  0.170352D-02  0.115580D-01 -0.816939D-01 -0.813205D-01  0.142944D+00
     11 -0.565207D-02 -0.496939D-02  0.346794D-01  0.350314D-01 -0.899645D-02
     12  0.114544D-01  0.172554D-02 -0.811005D-01 -0.941945D-02  0.755054D-02
     13  0.173270D-02  0.162662D-02 -0.904335D-02 -0.813163D-01  0.680052D-02
     14 -0.829886D-02 -0.830059D-02  0.160979D-02 -0.101249D-01 -0.530788D-02
     15  0.179486D-01 -0.830814D-02 -0.100912D-01  0.168442D-02 -0.555732D-02
     16 -0.830482D-02  0.173736D-01 -0.100386D-01 -0.101136D-01  0.278574D-01
     17  0.236217D-02 -0.572098D-02  0.395448D-02  0.396649D-02 -0.178820D-02
     18 -0.563970D-02  0.261699D-02  0.395735D-02  0.467145D-02 -0.487486D-02
     19  0.236392D-02  0.258401D-02  0.466712D-02  0.396423D-02 -0.487788D-02
     20 -0.813220D-02  0.616498D-02 -0.187609D-01  0.175520D-01  0.297092D-02
     21 -0.200571D-02 -0.618239D-02 -0.175912D-01  0.187481D-01 -0.298215D-02
     22  0.412769D-02 -0.259080D-04 -0.199527D-01  0.199449D-01 -0.497988D-04
     23 -0.613164D-02  0.819218D-02  0.187791D-01 -0.116876D-02  0.374398D-02
     24 -0.514342D-05 -0.415519D-02  0.199488D-01  0.273043D-04 -0.220908D-02
     25  0.612826D-02  0.200129D-02  0.175872D-01  0.122412D-02  0.723266D-03
     26 -0.412317D-02  0.414763D-02 -0.523416D-04 -0.199687D-01  0.226093D-02
     27  0.200332D-02 -0.819973D-02  0.111734D-02 -0.187727D-01 -0.369213D-02
     28  0.813672D-02 -0.204325D-02 -0.124417D-02 -0.175759D-01 -0.759781D-03
               11            12            13            14            15 
     11  0.118136D+00
     12 -0.810901D-01  0.141805D+00
     13 -0.816791D-01  0.756706D-02  0.142944D+00
     14 -0.100536D-01 -0.561680D-02  0.279036D-01  0.238287D+00
     15 -0.100801D-01  0.280278D-01 -0.556589D-02  0.533006D-01  0.238414D+00
     16  0.160860D-02 -0.560937D-02 -0.529051D-02  0.529390D-01  0.532788D-01
     17  0.466342D-02 -0.483585D-02 -0.488331D-02 -0.913446D-01 -0.913718D-01
     18  0.396587D-02 -0.172941D-02 -0.491257D-02 -0.912201D-01 -0.515496D-01
     19  0.395321D-02 -0.484656D-02 -0.178316D-02 -0.514458D-01 -0.914017D-01
     20  0.121480D-02 -0.375688D-02  0.781726D-03  0.288188D-02 -0.111736D-01
     21 -0.114551D-02 -0.746184D-03  0.371888D-02  0.112025D-01 -0.286387D-02
     22  0.225634D-04  0.226722D-02 -0.222976D-02 -0.548531D-02  0.552022D-02
     23 -0.175964D-01 -0.301051D-02 -0.748330D-03 -0.274651D-02 -0.833931D-02
     24 -0.199567D-01  0.000000D+00  0.218883D-02  0.557412D-02 -0.295558D-04
     25 -0.187886D-01  0.301358D-02 -0.375982D-02 -0.111137D-01  0.835453D-02
     26  0.199823D-01 -0.226971D-02  0.453805D-04  0.331523D-05 -0.550265D-02
     27  0.176220D-01  0.740982D-03  0.298254D-02  0.832394D-02  0.280710D-02
     28  0.187901D-01  0.375438D-02 -0.296611D-02 -0.836388D-02  0.111912D-01
               16            17            18            19            20 
     16  0.238244D+00
     17 -0.514005D-01  0.991248D-01
     18 -0.912203D-01  0.299640D-01  0.989812D-01
     19 -0.913379D-01  0.299311D-01  0.299843D-01  0.991401D-01
     20  0.834403D-02 -0.201670D-01  0.196719D-01  0.458417D-03  0.336907D-01
     21 -0.833300D-02  0.201576D-01 -0.443305D-03 -0.197151D-01  0.871069D-02
     22  0.393434D-04 -0.405771D-04 -0.205789D-01  0.205671D-01  0.816294D-02
     23  0.110865D-01 -0.197388D-01  0.201180D-01 -0.380715D-03  0.894172D-02
     24 -0.559048D-02  0.205857D-01  0.279402D-05 -0.205542D-01 -0.160383D-01
     25  0.278185D-02  0.387615D-03 -0.201328D-01  0.197280D-01 -0.165861D-01
     26  0.547633D-02 -0.205776D-01  0.205491D-01  0.429234D-04  0.841083D-02
     27 -0.112007D-01  0.197470D-01  0.433895D-03 -0.201306D-01 -0.165692D-01
     28 -0.282836D-02 -0.451129D-03 -0.197017D-01  0.201516D-01 -0.171170D-01
               21            22            23            24            25 
     21  0.336999D-01
     22  0.813087D-02  0.325444D-01
     23 -0.166046D-01 -0.160046D-01  0.336766D-01
     24  0.838462D-02 -0.160367D-01  0.813038D-02  0.325533D-01
     25 -0.171844D-01  0.837685D-02  0.873028D-02  0.813199D-02  0.336932D-01
     26 -0.159857D-01 -0.159493D-01  0.833696D-02 -0.160596D-01 -0.160232D-01
     27  0.900346D-02 -0.159814D-01 -0.172093D-01  0.836336D-02 -0.166215D-01
     28 -0.165655D-01  0.843219D-02 -0.166094D-01 -0.160580D-01  0.893974D-02
               26            27            28 
     26  0.325353D-01
     27  0.813873D-02  0.337114D-01
     28  0.817513D-02  0.872657D-02  0.337243D-01
 Final forces over variables, Energy=-9.61524965D+02:
  7.43858971D-06 5.58283381D-06 3.32376440D-05-2.21605706D-05
  2.26254599D-05 3.57590550D-06 1.72939860D-05 3.03768153D-05
  1.94982572D-05-4.82606870D-05-1.44351020D-05 8.11921457D-07
  1.50389896D-05 6.31954529D-05-3.69978478D-06-3.13304940D-05
 -2.79248369D-05 4.98407576D-06 3.80808201D-06 7.36496166D-06
 -1.02983142D-06-9.82769245D-06 1.30793538D-05 4.68456067D-06
 -4.11330036D-06 5.64133473D-06-2.75345835D-06-1.15513194D-05

 GradGradGradGradGradGradGradGradGradGradGradGradGradGradGradGradGradGrad
 Berny optimization.
 Internal  Forces:  Max     0.000063195 RMS     0.000021478
 Search for a local minimum.
 Step number   1 out of a maximum of    2
 All quantities printed in internal units (Hartrees-Bohrs-Radians)
 Second derivative matrix not updated -- analytic derivatives used.
 ITU=  0
     Eigenvalues ---    0.00154   0.08747   0.08796   0.12617   0.12655
     Eigenvalues ---    0.13215   0.16165   0.16303   0.22376   0.22473
     Eigenvalues ---    0.28982   0.32587   0.32633   0.49773   0.51226
     Eigenvalues ---    0.52112   0.52127   0.54131
 Angle between quadratic step and forces=  37.04 degrees.
 Linear search not attempted -- first point.
 Iteration  1 RMS(Cart)=  0.00018621 RMS(Int)=  0.00000002
 Iteration  2 RMS(Cart)=  0.00000002 RMS(Int)=  0.00000000
 Variable       Old X    -DE/DX   Delta X   Delta X   Delta X     New X
                                 (Linear)    (Quad)   (Total)
    R1        2.56300   0.00001   0.00000   0.00000   0.00000   2.56301
    R2        2.56296   0.00001   0.00000   0.00000   0.00000   2.56296
    R3        2.56291   0.00003   0.00000   0.00007   0.00007   2.56298
    R4        3.58626  -0.00002   0.00000  -0.00017  -0.00017   3.58609
    R5        2.82727   0.00002   0.00000   0.00003   0.00003   2.82730
    R6        2.82726   0.00000   0.00000   0.00002   0.00002   2.82727
    R7        2.82726   0.00002   0.00000   0.00004   0.00004   2.82730
    A1        1.86157   0.00003   0.00000   0.00012   0.00012   1.86169
    A2        1.86162   0.00002   0.00000   0.00007   0.00007   1.86168
    A3        1.95752  -0.00005   0.00000  -0.00020  -0.00020   1.95732
    A4        1.86170  -0.00001   0.00000  -0.00009  -0.00009   1.86160
    A5        1.95740   0.00000   0.00000   0.00007   0.00007   1.95747
    A6        1.95730   0.00002   0.00000   0.00005   0.00005   1.95734
    A7        1.78058   0.00006   0.00000   0.00028   0.00028   1.78085
    A8        1.78083   0.00000   0.00000  -0.00007  -0.00007   1.78076
    A9        1.78099  -0.00003   0.00000  -0.00014  -0.00014   1.78085
   A10        2.02070  -0.00003   0.00000  -0.00015  -0.00015   2.02055
   A11        2.02064   0.00000   0.00000   0.00008   0.00008   2.02072
   A12        2.02055   0.00000   0.00000   0.00003   0.00003   2.02057
    D1       -1.04790   0.00001   0.00000   0.00015   0.00015  -1.04776
    D2        1.04650   0.00000   0.00000   0.00006   0.00006   1.04656
    D3        3.14089  -0.00001   0.00000   0.00001   0.00001   3.14090
    D4        1.04649   0.00001   0.00000   0.00021   0.00021   1.04670
    D5        3.14090   0.00000   0.00000   0.00012   0.00012   3.14102
    D6       -1.04790   0.00000   0.00000   0.00008   0.00008  -1.04782
    D7        3.14090   0.00001   0.00000   0.00017   0.00017   3.14107
    D8       -1.04789   0.00000   0.00000   0.00009   0.00009  -1.04780
    D9        1.04650  -0.00001   0.00000   0.00004   0.00004   1.04654
         Item               Value     Threshold  Converged?
 Maximum Force            0.000063     0.000450     YES
 RMS     Force            0.000021     0.000300     YES
 Maximum Displacement     0.000461     0.001800     YES
 RMS     Displacement     0.000186     0.001200     YES
 Predicted change in Energy=-2.751954D-08
 Optimization completed.
    -- Stationary point found.
                           ----------------------------
                           !   Optimized Parameters   !
                           ! (Angstroms and Degrees)  !
 --------------------------                            --------------------------
 ! Name  Definition              Value          Derivative Info.                !
 --------------------------------------------------------------------------------
 ! R1    R(1,2)                  1.3563         -DE/DX =    0.0                 !
 ! R2    R(1,3)                  1.3563         -DE/DX =    0.0                 !
 ! R3    R(1,4)                  1.3562         -DE/DX =    0.0                 !
 ! R4    R(1,5)                  1.8978         -DE/DX =    0.0                 !
 ! R5    R(5,6)                  1.4961         -DE/DX =    0.0                 !
 ! R6    R(5,7)                  1.4961         -DE/DX =    0.0                 !
 ! R7    R(5,8)                  1.4961         -DE/DX =    0.0                 !
 ! A1    A(2,1,3)              106.6601         -DE/DX =    0.0                 !
 ! A2    A(2,1,4)              106.6629         -DE/DX =    0.0                 !
 ! A3    A(2,1,5)              112.1577         -DE/DX =    0.0                 !
 ! A4    A(3,1,4)              106.6673         -DE/DX =    0.0                 !
 ! A5    A(3,1,5)              112.1509         -DE/DX =    0.0                 !
 ! A6    A(4,1,5)              112.1447         -DE/DX =    0.0                 !
 ! A7    A(1,5,6)              102.0195         -DE/DX =    0.0001              !
 ! A8    A(1,5,7)              102.0339         -DE/DX =    0.0                 !
 ! A9    A(1,5,8)              102.0431         -DE/DX =    0.0                 !
 ! A10   A(6,5,7)              115.7778         -DE/DX =    0.0                 !
 ! A11   A(6,5,8)              115.7742         -DE/DX =    0.0                 !
 ! A12   A(7,5,8)              115.7688         -DE/DX =    0.0                 !
 ! D1    D(2,1,5,6)            -60.0405         -DE/DX =    0.0                 !
 ! D2    D(2,1,5,7)             59.96           -DE/DX =    0.0                 !
 ! D3    D(2,1,5,8)            179.9595         -DE/DX =    0.0                 !
 ! D4    D(3,1,5,6)             59.9597         -DE/DX =    0.0                 !
 ! D5    D(3,1,5,7)            179.9602         -DE/DX =    0.0                 !
 ! D6    D(3,1,5,8)            -60.0403         -DE/DX =    0.0                 !
 ! D7    D(4,1,5,6)            179.96           -DE/DX =    0.0                 !
 ! D8    D(4,1,5,7)            -60.0395         -DE/DX =    0.0                 !
 ! D9    D(4,1,5,8)             59.96           -DE/DX =    0.0                 !
 --------------------------------------------------------------------------------
 GradGradGradGradGradGradGradGradGradGradGradGradGradGradGradGradGradGrad


 Test job not archived.
 1\1\GINC-BARREL\Freq\RB3LYP\CC-pVDZ\C1F3O3S1(1-)\FLORIAN\27-Jan-2021\0
 \\# b3lyp/cc-pvdz freq scf=tight geom=allcheck iop(7/33=1)\\initial op
 t of coordinates\\-1,1\C,1.063621945,0.0691000019,-0.0493524549\F,0.56
 48447322,0.7745396152,-1.0948575985\F,0.5459575932,-1.1810880338,-0.14
 15263026\F,0.5460054496,0.6224892562,1.075461439\S,2.9612896259,0.0584
 12715,-0.0333636138\O,3.2802947625,-0.5855443809,-1.3455959843\O,3.280
 566537,1.5163661542,0.0706012029\O,3.2586093546,-0.7608653278,1.182683
 3121\\Version=ES64L-G09RevD.01\State=1-A\HF=-961.5249648\RMSD=4.451e-0
 9\RMSF=1.863e-05\ZeroPoint=0.0263494\Thermal=0.0337241\Dipole=-1.59296
 93,0.0089324,-0.0132183\DipoleDeriv=1.3754805,0.0005711,-0.0007029,0.0
 007831,1.471274,0.0000702,-0.000917,0.0000763,1.4712443,-0.6514703,0.2
 121627,-0.3144758,0.1829345,-0.4672005,0.290876,-0.271149,0.2908243,-0
 .7020793,-0.6623479,-0.3817936,-0.0302007,-0.3297153,-0.8839843,-0.045
 8448,-0.026511,-0.0463302,-0.274115,-0.6621335,0.1708701,0.3426278,0.1
 479753,-0.3917764,-0.2450626,0.2957486,-0.2445496,-0.7667436,1.851858,
 0.0010371,-0.0013863,0.0009468,2.0376685,0.0000208,-0.0014149,0.000021
 6,2.0380118,-0.7524677,0.0571002,0.1148695,0.1259995,-0.7547011,-0.215
 6281,0.2559475,-0.2167666,-1.0874388,-0.7526305,-0.12789,-0.0098117,-0
 .2845124,-1.1907712,-0.0401147,-0.0206538,-0.0388122,-0.6510676,-0.746
 2887,0.0679424,-0.10092,0.1555884,-0.8205089,0.2556833,-0.2310503,0.25
 55364,-1.0278118\Polar=36.2397072,-0.0035445,35.7331649,0.0086117,0.00
 04413,35.7344581\PG=C01 [X(C1F3O3S1)]\NImag=0\\0.50120445,-0.00033669,
 0.47031246,0.00023267,0.00007584,0.46981256,-0.12461923,0.04642139,-0.
 06874211,0.09127320,0.04725802,-0.11432891,0.06667223,-0.04970793,0.15
 521441,-0.06999343,0.06678769,-0.16792256,0.07365933,-0.11819965,0.250
 29263,-0.12702758,-0.08392707,-0.00638067,0.01861272,0.00902349,0.0031
 3166,0.09357587,-0.08537138,-0.20965979,-0.01063142,-0.00459805,-0.058
 72788,0.03195338,0.09213414,0.32537379,-0.00648373,-0.01057541,-0.0698
 6468,0.00988119,0.04292442,-0.00043528,0.00662486,0.01835593,0.0766939
 1,-0.12715940,0.03740615,0.07548723,0.01834381,-0.00629881,-0.00720662
 ,0.01883444,-0.00259986,-0.00996910,0.09401433,0.03806079,-0.09707039,
 -0.05611701,-0.00745579,0.01710050,0.01201395,0.01014616,-0.04725497,-
 0.04937683,-0.04066069,0.12455999,0.07685814,-0.05629338,-0.18276535,0
 .00791404,0.00117308,-0.07669326,-0.00137163,-0.03858935,-0.01196083,-
 0.08300192,0.09983073,0.27817384,-0.14862074,0.00076956,-0.00108296,0.
 01138101,-0.00630951,0.00933814,0.01107840,0.01063863,0.00083587,0.011
 05334,-0.00478566,-0.00960501,0.43049692,0.00066394,-0.01984250,0.0000
 2144,0.01792739,-0.00702472,0.01194561,-0.03246021,-0.02430139,-0.0020
 6834,0.01422232,-0.00392808,-0.00990324,0.00281864,0.88274509,-0.00108
 955,0.00002837,-0.01986161,-0.02655419,0.01191774,-0.01666567,-0.00217
 713,-0.00168913,0.00085661,0.02932784,-0.01024754,-0.01944278,-0.00370
 294,0.00007476,0.88266353,0.00871271,0.00900125,0.01864551,-0.00196438
 ,0.00049632,-0.00152887,-0.00191675,-0.00135066,-0.00051634,-0.0112975
 9,0.00339831,0.00673019,-0.10588766,0.04022148,0.08199726,0.07284114,-
 0.00588536,-0.00405124,-0.00756966,0.00004053,0.00116130,0.00011991,0.
 00514032,0.00675011,0.00152922,0.00261936,0.00062569,-0.00020417,0.038
 70764,-0.15897425,-0.15059783,-0.04555143,0.14851374,-0.01190146,-0.00
 726001,-0.01552588,0.00637040,-0.00291577,0.00798312,0.00400060,0.0043
 9079,0.00237668,0.00511838,-0.00018964,0.00046898,0.07895190,-0.150649
 54,-0.39174783,-0.09316616,0.17189876,0.41418978,0.00868674,-0.0206580
 2,-0.00135129,-0.00194037,0.00122916,-0.00101354,-0.01129131,-0.007504
 56,-0.00063340,-0.00191090,0.00105181,0.00107642,-0.10619359,-0.091421
 19,-0.00650044,0.01980962,0.00689848,0.00314492,0.07307441,0.01324797,
 -0.01906886,-0.00117941,-0.00593052,0.00604300,-0.00490075,-0.00572604
 ,0.00035070,-0.00007838,-0.00563886,0.00505998,0.00507961,-0.08792316,
 -0.46391487,-0.02707872,-0.00552738,-0.01009912,-0.00178181,0.10371414
 ,0.49636532,0.00099610,-0.00147570,-0.00050460,0.00237613,-0.00185677,
 0.00310659,-0.00050133,-0.00009148,0.00073880,-0.00327875,0.00215149,0
 .00406075,-0.00625415,-0.02707670,-0.08700110,-0.00522018,-0.03400690,
 0.00430332,0.00725950,0.03089461,0.06639808,0.00882306,0.01132342,-0.0
 1680838,-0.01108676,0.00430926,-0.00638666,-0.00186579,-0.00134826,0.0
 0026065,-0.00187803,0.00024508,0.00139976,-0.10330768,0.04802764,-0.07
 130085,0.01970291,-0.00196953,0.00748141,0.01976540,-0.00621615,0.0046
 2268,0.06984689,-0.00763729,-0.00629077,0.00872799,0.00330298,0.000562
 29,0.00027986,0.00566920,0.00746943,-0.00071061,0.00095039,0.00090727,
 -0.00109328,0.04608386,-0.20475927,0.17759236,-0.00068788,0.01607376,-
 0.01349279,0.00669019,-0.01473615,0.03146146,-0.05437145,0.20077343,0.
 01138126,0.00871260,-0.01336789,-0.00490479,0.00028472,0.00033443,-0.0
 0332636,-0.00369872,0.00159479,-0.00647706,0.00193485,0.00815864,-0.06
 848086,0.17765600,-0.34880115,-0.00694142,0.01883068,-0.02204817,-0.00
 198216,-0.00095514,0.00889816,0.08073139,-0.20276500,0.36523119\\-0.00
 001391,0.00000112,0.00000371,-0.00002715,-0.00001861,0.00001210,0.0000
 0468,0.00000207,-0.00002193,0.00001442,-0.00000660,-0.00003235,0.00004
 536,0.00001713,0.00002429,-0.00002625,-0.00000367,0.00002374,-0.000008
 49,0.00000160,0.00001221,0.00001134,0.00000695,-0.00002177\\\@


     ON THE SURVIVAL OF THE FITTEST -
 "STRONG REPRESENTATIVES FROM EACH PAST ERA THRIVE TODAY,
 SUCH AS PROGRAMMING IN THE THIRTY YEAR OLD LANGUAGE KNOWN
 AS FORTRAN, AND EVEN IN THE ANCIENT SCRIPT KNOWN AS DIRECT
 MACHINE CODE. SOME PEOPLE MIGHT LOOK ON SUCH RELICS AS LIVING
 FOSSILS; OTHERS WOULD POINT OUT THAT EVEN A VERY OLD SPECIES
 MIGHT STILL BE FILLING A PARTICULAR ECOLOGICAL NICHE."
     -- ALAN KAY, SCI.AM. SEPTEMBER 1984
 Job cpu time:       0 days  0 hours  1 minutes 37.0 seconds.
 File lengths (MBytes):  RWF=     21 Int=      0 D2E=      0 Chk=      3 Scr=      1
 Normal termination of Gaussian 09 at Wed Jan 27 15:19:25 2021.
