 Entering Gaussian System, Link 0=g09
 Initial command:
 /opt/g09/l1.exe "/scratch/data/florian/gaussian_scratch/Gau-5599.inp" -scrdir="/scratch/data/florian/gaussian_scratch/"
 Entering Link 1 = /opt/g09/l1.exe PID=      5601.
  
 Copyright (c) 1988,1990,1992,1993,1995,1998,2003,2009,2013,
            Gaussian, Inc.  All Rights Reserved.
  
 This is part of the Gaussian(R) 09 program.  It is based on
 the Gaussian(R) 03 system (copyright 2003, Gaussian, Inc.),
 the Gaussian(R) 98 system (copyright 1998, Gaussian, Inc.),
 the Gaussian(R) 94 system (copyright 1995, Gaussian, Inc.),
 the Gaussian 92(TM) system (copyright 1992, Gaussian, Inc.),
 the Gaussian 90(TM) system (copyright 1990, Gaussian, Inc.),
 the Gaussian 88(TM) system (copyright 1988, Gaussian, Inc.),
 the Gaussian 86(TM) system (copyright 1986, Carnegie Mellon
 University), and the Gaussian 82(TM) system (copyright 1983,
 Carnegie Mellon University). Gaussian is a federally registered
 trademark of Gaussian, Inc.
  
 This software contains proprietary and confidential information,
 including trade secrets, belonging to Gaussian, Inc.
  
 This software is provided under written license and may be
 used, copied, transmitted, or stored only in accord with that
 written license.
  
 The following legend is applicable only to US Government
 contracts under FAR:
  
                    RESTRICTED RIGHTS LEGEND
  
 Use, reproduction and disclosure by the US Government is
 subject to restrictions as set forth in subparagraphs (a)
 and (c) of the Commercial Computer Software - Restricted
 Rights clause in FAR 52.227-19.
  
 Gaussian, Inc.
 340 Quinnipiac St., Bldg. 40, Wallingford CT 06492
  
  
 ---------------------------------------------------------------
 Warning -- This program may not be used in any manner that
 competes with the business of Gaussian, Inc. or will provide
 assistance to any competitor of Gaussian, Inc.  The licensee
 of this program is prohibited from giving any competitor of
 Gaussian, Inc. access to this program.  By using this program,
 the user acknowledges that Gaussian, Inc. is engaged in the
 business of creating and licensing software in the field of
 computational chemistry and represents and warrants to the
 licensee that it is not a competitor of Gaussian, Inc. and that
 it will not use this program in any manner prohibited above.
 ---------------------------------------------------------------
  

 Cite this work as:
 Gaussian 09, Revision D.01,
 M. J. Frisch, G. W. Trucks, H. B. Schlegel, G. E. Scuseria, 
 M. A. Robb, J. R. Cheeseman, G. Scalmani, V. Barone, B. Mennucci, 
 G. A. Petersson, H. Nakatsuji, M. Caricato, X. Li, H. P. Hratchian, 
 A. F. Izmaylov, J. Bloino, G. Zheng, J. L. Sonnenberg, M. Hada, 
 M. Ehara, K. Toyota, R. Fukuda, J. Hasegawa, M. Ishida, T. Nakajima, 
 Y. Honda, O. Kitao, H. Nakai, T. Vreven, J. A. Montgomery, Jr., 
 J. E. Peralta, F. Ogliaro, M. Bearpark, J. J. Heyd, E. Brothers, 
 K. N. Kudin, V. N. Staroverov, T. Keith, R. Kobayashi, J. Normand, 
 K. Raghavachari, A. Rendell, J. C. Burant, S. S. Iyengar, J. Tomasi, 
 M. Cossi, N. Rega, J. M. Millam, M. Klene, J. E. Knox, J. B. Cross, 
 V. Bakken, C. Adamo, J. Jaramillo, R. Gomperts, R. E. Stratmann, 
 O. Yazyev, A. J. Austin, R. Cammi, C. Pomelli, J. W. Ochterski, 
 R. L. Martin, K. Morokuma, V. G. Zakrzewski, G. A. Voth, 
 P. Salvador, J. J. Dannenberg, S. Dapprich, A. D. Daniels, 
 O. Farkas, J. B. Foresman, J. V. Ortiz, J. Cioslowski, 
 and D. J. Fox, Gaussian, Inc., Wallingford CT, 2013.
 
 ******************************************
 Gaussian 09:  ES64L-G09RevD.01 24-Apr-2013
                 5-Nov-2020 
 ******************************************
 %chk=oac.chk
 %mem=4GB
 %NPROCSHARED=3
 Will use up to    3 processors via shared memory.
 -------------------------------------------------------------
 # b3lyp/cc-pvdz opt=(verytight, maxcycle=200) density=current
 -------------------------------------------------------------
 1/6=200,7=1,14=-1,18=20,19=15,26=3,38=1/1,3;
 2/9=110,12=2,17=6,18=5,40=1/2;
 3/5=16,11=2,16=1,25=1,30=1,71=1,74=-5/1,2,3;
 4//1;
 5/5=2,38=5/2;
 6/7=2,8=2,9=2,10=2,22=-1,28=1/1;
 7//1,2,3,16;
 1/6=200,7=1,14=-1,18=20,19=15,26=3/3(2);
 2/9=110/2;
 99//99;
 2/9=110/2;
 3/5=16,11=2,16=1,25=1,30=1,71=1,74=-5/1,2,3;
 4/5=5,16=3,69=1/1;
 5/5=2,38=5/2;
 7//1,2,3,16;
 1/6=200,7=1,14=-1,18=20,19=15,26=3/3(-5);
 2/9=110/2;
 6/7=2,8=2,9=2,10=2,19=2,22=-1,28=1/1;
 99/9=1/99;
 --------------------------
 initial opt of coordinates
 --------------------------
 Symbolic Z-matrix:
 Charge = -1 Multiplicity = 1
 C                     0.04093   1.19372   0. 
 H                     0.39758   0.18491   0. 
 H                     0.3976    1.69812   0.87365 
 H                    -1.02907   1.19374   0. 
 C                     0.55427   1.91968  -1.2574 
 O                     0.76835   3.2028   -1.22335 
 O                     0.77247   1.24789  -2.35032 
 

 GradGradGradGradGradGradGradGradGradGradGradGradGradGradGradGradGradGrad
 Berny optimization.
 Initialization pass.
                           ----------------------------
                           !    Initial Parameters    !
                           ! (Angstroms and Degrees)  !
 --------------------------                            --------------------------
 ! Name  Definition              Value          Derivative Info.                !
 --------------------------------------------------------------------------------
 ! R1    R(1,2)                  1.07           estimate D2E/DX2                !
 ! R2    R(1,3)                  1.07           estimate D2E/DX2                !
 ! R3    R(1,4)                  1.07           estimate D2E/DX2                !
 ! R4    R(1,5)                  1.54           estimate D2E/DX2                !
 ! R5    R(5,6)                  1.3013         estimate D2E/DX2                !
 ! R6    R(5,7)                  1.3013         estimate D2E/DX2                !
 ! A1    A(2,1,3)              109.4712         estimate D2E/DX2                !
 ! A2    A(2,1,4)              109.4712         estimate D2E/DX2                !
 ! A3    A(2,1,5)              109.4712         estimate D2E/DX2                !
 ! A4    A(3,1,4)              109.4712         estimate D2E/DX2                !
 ! A5    A(3,1,5)              109.4713         estimate D2E/DX2                !
 ! A6    A(4,1,5)              109.4712         estimate D2E/DX2                !
 ! A7    A(1,5,6)              119.8865         estimate D2E/DX2                !
 ! A8    A(1,5,7)              119.8865         estimate D2E/DX2                !
 ! A9    A(6,5,7)              120.2269         estimate D2E/DX2                !
 ! D1    D(2,1,5,6)           -150.1115         estimate D2E/DX2                !
 ! D2    D(2,1,5,7)             29.8885         estimate D2E/DX2                !
 ! D3    D(3,1,5,6)            -30.1115         estimate D2E/DX2                !
 ! D4    D(3,1,5,7)            149.8885         estimate D2E/DX2                !
 ! D5    D(4,1,5,6)             89.8885         estimate D2E/DX2                !
 ! D6    D(4,1,5,7)            -90.1115         estimate D2E/DX2                !
 --------------------------------------------------------------------------------
 Trust Radius=3.00D-01 FncErr=1.00D-07 GrdErr=1.00D-06
 Number of steps in this run=    100 maximum allowed number of steps=    100.
 GradGradGradGradGradGradGradGradGradGradGradGradGradGradGradGradGradGrad

                          Input orientation:                          
 ---------------------------------------------------------------------
 Center     Atomic      Atomic             Coordinates (Angstroms)
 Number     Number       Type             X           Y           Z
 ---------------------------------------------------------------------
      1          6           0        0.040928    1.193724    0.000000
      2          1           0        0.397582    0.184914    0.000000
      3          1           0        0.397601    1.698123    0.873652
      4          1           0       -1.029072    1.193738    0.000000
      5          6           0        0.554270    1.919681   -1.257405
      6          8           0        0.768354    3.202798   -1.223348
      7          8           0        0.772471    1.247891   -2.350323
 ---------------------------------------------------------------------
                    Distance matrix (angstroms):
                    1          2          3          4          5
     1  C    0.000000
     2  H    1.070000   0.000000
     3  H    1.070000   1.747302   0.000000
     4  H    1.070000   1.747303   1.747303   0.000000
     5  C    1.540000   2.148263   2.148263   2.148263   0.000000
     6  O    2.462134   3.277449   2.607472   2.960345   1.301300
     7  O    2.462134   2.606622   3.276774   2.961842   1.301300
                    6          7
     6  O    0.000000
     7  O    2.256490   0.000000
 Stoichiometry    C2H3O2(1-)
 Framework group  C1[X(C2H3O2)]
 Deg. of freedom    15
 Full point group                 C1      NOp   1
 Largest Abelian subgroup         C1      NOp   1
 Largest concise Abelian subgroup C1      NOp   1
                         Standard orientation:                         
 ---------------------------------------------------------------------
 Center     Atomic      Atomic             Coordinates (Angstroms)
 Number     Number       Type             X           Y           Z
 ---------------------------------------------------------------------
      1          6           0       -1.393054    0.000000    0.000000
      2          1           0       -1.749720    0.874631   -0.502702
      3          1           0       -1.749721   -0.872668   -0.506102
      4          1           0       -1.749720   -0.001963    1.008804
      5          6           0        0.146946    0.000000    0.000000
      6          8           0        0.795363   -1.128245    0.000000
      7          8           0        0.795363    1.128245    0.000000
 ---------------------------------------------------------------------
 Rotational constants (GHZ):     11.5388590      9.3381437      5.3287029
 Standard basis: CC-pVDZ (5D, 7F)
 There are    75 symmetry adapted cartesian basis functions of A   symmetry.
 There are    71 symmetry adapted basis functions of A   symmetry.
    71 basis functions,   153 primitive gaussians,    75 cartesian basis functions
    16 alpha electrons       16 beta electrons
       nuclear repulsion energy       109.9859843843 Hartrees.
 NAtoms=    7 NActive=    7 NUniq=    7 SFac= 1.00D+00 NAtFMM=   60 NAOKFM=F Big=F
 Integral buffers will be    131072 words long.
 Raffenetti 2 integral format.
 Two-electron integral symmetry is turned on.
 One-electron integrals computed using PRISM.
 NBasis=    71 RedAO= T EigKep=  5.93D-03  NBF=    71
 NBsUse=    71 1.00D-06 EigRej= -1.00D+00 NBFU=    71
 ExpMin= 1.22D-01 ExpMax= 1.17D+04 ExpMxC= 4.01D+02 IAcc=1 IRadAn=         1 AccDes= 0.00D+00
 Harris functional with IExCor=  402 and IRadAn=       1 diagonalized for initial guess.
 HarFok:  IExCor=  402 AccDes= 0.00D+00 IRadAn=         1 IDoV= 1 UseB2=F ITyADJ=14
 ICtDFT=  3500011 ScaDFX=  1.000000  1.000000  1.000000  1.000000
 FoFCou: FMM=F IPFlag=           0 FMFlag=      100000 FMFlg1=           0
         NFxFlg=           0 DoJE=T BraDBF=F KetDBF=T FulRan=T
         wScrn=  0.000000 ICntrl=     500 IOpCl=  0 I1Cent=   200000004 NGrid=           0
         NMat0=    1 NMatS0=      1 NMatT0=    0 NMatD0=    1 NMtDS0=    0 NMtDT0=    0
 Petite list used in FoFCou.
 Keep R1 ints in memory in canonical form, NReq=4198417.
 Requested convergence on RMS density matrix=1.00D-08 within 128 cycles.
 Requested convergence on MAX density matrix=1.00D-06.
 Requested convergence on             energy=1.00D-06.
 No special actions if energy rises.
 Integral accuracy reduced to 1.0D-05 until final iterations.
 Initial convergence to 1.0D-05 achieved.  Increase integral accuracy.
 SCF Done:  E(RB3LYP) =  -228.501074690     A.U. after   14 cycles
            NFock= 14  Conv=0.34D-08     -V/T= 2.0059

 **********************************************************************

            Population analysis using the SCF density.

 **********************************************************************

 Orbital symmetries:
       Occupied  (A) (A) (A) (A) (A) (A) (A) (A) (A) (A) (A) (A)
                 (A) (A) (A) (A)
       Virtual   (A) (A) (A) (A) (A) (A) (A) (A) (A) (A) (A) (A)
                 (A) (A) (A) (A) (A) (A) (A) (A) (A) (A) (A) (A)
                 (A) (A) (A) (A) (A) (A) (A) (A) (A) (A) (A) (A)
                 (A) (A) (A) (A) (A) (A) (A) (A) (A) (A) (A) (A)
                 (A) (A) (A) (A) (A) (A) (A)
 The electronic state is 1-A.
 Alpha  occ. eigenvalues --  -18.83283 -18.83279 -10.04046  -9.99067  -0.75616
 Alpha  occ. eigenvalues --   -0.66350  -0.53226  -0.28328  -0.24326  -0.23225
 Alpha  occ. eigenvalues --   -0.17914  -0.13702  -0.11725  -0.00371   0.00526
 Alpha  occ. eigenvalues --    0.02664
 Alpha virt. eigenvalues --    0.24341   0.26195   0.30034   0.32333   0.40995
 Alpha virt. eigenvalues --    0.52542   0.53922   0.64247   0.68249   0.73197
 Alpha virt. eigenvalues --    0.75508   0.78169   0.81484   0.82318   0.83699
 Alpha virt. eigenvalues --    0.86152   1.01102   1.09995   1.11772   1.15467
 Alpha virt. eigenvalues --    1.24469   1.32136   1.34839   1.35076   1.38026
 Alpha virt. eigenvalues --    1.38445   1.48545   1.58554   1.60010   1.77827
 Alpha virt. eigenvalues --    1.80271   1.81660   1.87622   1.92795   1.93910
 Alpha virt. eigenvalues --    2.08458   2.12512   2.14308   2.22988   2.39120
 Alpha virt. eigenvalues --    2.40672   2.45266   2.65417   2.67103   2.67495
 Alpha virt. eigenvalues --    2.89954   2.92525   2.93105   2.98287   3.22627
 Alpha virt. eigenvalues --    3.29167   3.37663   3.57646   3.62366   3.71826
          Condensed to atoms (all electrons):
               1          2          3          4          5          6
     1  C    5.040064   0.297217   0.297474   0.357323   0.191605  -0.111301
     2  H    0.297217   0.777460  -0.033460  -0.028655   0.008896   0.005938
     3  H    0.297474  -0.033460   0.777288  -0.028683   0.008833   0.014342
     4  H    0.357323  -0.028655  -0.028683   0.722304  -0.003349   0.001144
     5  C    0.191605   0.008896   0.008833  -0.003349   4.441132   0.665726
     6  O   -0.111301   0.005938   0.014342   0.001144   0.665726   7.994989
     7  O   -0.111327   0.014404   0.005918   0.001137   0.665742  -0.093000
               7
     1  C   -0.111327
     2  H    0.014404
     3  H    0.005918
     4  H    0.001137
     5  C    0.665742
     6  O   -0.093000
     7  O    7.994914
 Mulliken charges:
               1
     1  C    0.038945
     2  H   -0.041801
     3  H   -0.041712
     4  H   -0.021221
     5  C    0.021415
     6  O   -0.477839
     7  O   -0.477787
 Sum of Mulliken charges =  -1.00000
 Mulliken charges with hydrogens summed into heavy atoms:
               1
     1  C   -0.065789
     5  C    0.021415
     6  O   -0.477839
     7  O   -0.477787
 Electronic spatial extent (au):  <R**2>=            260.4685
 Charge=             -1.0000 electrons
 Dipole moment (field-independent basis, Debye):
    X=             -3.7609    Y=             -0.0002    Z=              0.0875  Tot=              3.7619
 Quadrupole moment (field-independent basis, Debye-Ang):
   XX=            -30.8904   YY=            -33.3873   ZZ=            -24.2894
   XY=              0.0009   XZ=             -0.1379   YZ=              0.0000
 Traceless Quadrupole moment (field-independent basis, Debye-Ang):
   XX=             -1.3680   YY=             -3.8649   ZZ=              5.2330
   XY=              0.0009   XZ=             -0.1379   YZ=              0.0000
 Octapole moment (field-independent basis, Debye-Ang**2):
  XXX=              7.6437  YYY=              0.0000  ZZZ=              0.3952  XYY=             -4.2174
  XXY=             -0.0013  XXZ=              0.2831  XZZ=              1.9182  YZZ=             -0.0011
  YYZ=             -0.0498  XYZ=              0.0001
 Hexadecapole moment (field-independent basis, Debye-Ang**3):
 XXXX=           -195.8661 YYYY=           -131.8233 ZZZZ=            -29.0241 XXXY=              0.0040
 XXXZ=             -0.7888 YYYX=              0.0001 YYYZ=              0.0001 ZZZX=             -0.7207
 ZZZY=             -0.0003 XXYY=            -54.6686 XXZZ=            -34.6938 YYZZ=            -24.8171
 XXYZ=             -0.0002 YYXZ=              0.2388 ZZXY=              0.0029
 N-N= 1.099859843843D+02 E-N=-7.653994519593D+02  KE= 2.271534323704D+02
 Calling FoFJK, ICntrl=      2127 FMM=F ISym2X=0 I1Cent= 0 IOpClX= 0 NMat=1 NMatS=1 NMatT=0.
 ***** Axes restored to original set *****
 -------------------------------------------------------------------
 Center     Atomic                   Forces (Hartrees/Bohr)
 Number     Number              X              Y              Z
 -------------------------------------------------------------------
      1        6           0.013968380    0.011181612   -0.019419901
      2        1           0.004996017   -0.022817627   -0.000639711
      3        1           0.004986674    0.011972021    0.019445876
      4        1          -0.024459289   -0.000842827    0.001487063
      5        6           0.032481834    0.043173868   -0.074771567
      6        8          -0.015941631   -0.043095331    0.024405780
      7        8          -0.016031986    0.000428285    0.049492460
 -------------------------------------------------------------------
 Cartesian Forces:  Max     0.074771567 RMS     0.027872451

 GradGradGradGradGradGradGradGradGradGradGradGradGradGradGradGradGradGrad
 Berny optimization.
 FormGI is forming the generalized inverse of G from B-inverse, IUseBI=4.
 Internal  Forces:  Max     0.044477109 RMS     0.020225357
 Search for a local minimum.
 Step number   1 out of a maximum of  100
 All quantities printed in internal units (Hartrees-Bohrs-Radians)
 Mixed Optimization -- RFO/linear search
 Second derivative matrix not updated -- first step.
 ITU=  0
     Eigenvalues ---    0.00237   0.00237   0.07243   0.07243   0.16000
     Eigenvalues ---    0.16000   0.16000   0.25000   0.25000   0.28519
     Eigenvalues ---    0.37230   0.37230   0.37230   0.66833   0.66833
 RFO step:  Lambda=-2.11076559D-02 EMin= 2.36824106D-03
 Linear search not attempted -- first point.
 Iteration  1 RMS(Cart)=  0.05546512 RMS(Int)=  0.00297278
 Iteration  2 RMS(Cart)=  0.00307727 RMS(Int)=  0.00018697
 Iteration  3 RMS(Cart)=  0.00000473 RMS(Int)=  0.00018692
 Iteration  4 RMS(Cart)=  0.00000000 RMS(Int)=  0.00018692
 Variable       Old X    -DE/DX   Delta X   Delta X   Delta X     New X
                                 (Linear)    (Quad)   (Total)
    R1        2.02201   0.02318   0.00000   0.05892   0.05892   2.08092
    R2        2.02201   0.02318   0.00000   0.05893   0.05893   2.08094
    R3        2.02201   0.02446   0.00000   0.06217   0.06217   2.08418
    R4        2.91018   0.00112   0.00000   0.00366   0.00366   2.91384
    R5        2.45910  -0.04448   0.00000  -0.06451  -0.06451   2.39459
    R6        2.45910  -0.04448   0.00000  -0.06451  -0.06451   2.39459
    A1        1.91063   0.00103   0.00000   0.01479   0.01461   1.92524
    A2        1.91063  -0.00227   0.00000  -0.01709  -0.01708   1.89355
    A3        1.91063   0.00118   0.00000   0.00883   0.00874   1.91937
    A4        1.91063  -0.00229   0.00000  -0.01723  -0.01723   1.89340
    A5        1.91063   0.00118   0.00000   0.00877   0.00868   1.91931
    A6        1.91063   0.00117   0.00000   0.00192   0.00192   1.91255
    A7        2.09241  -0.02212   0.00000  -0.08159  -0.08206   2.01035
    A8        2.09241  -0.02211   0.00000  -0.08156  -0.08203   2.01039
    A9        2.09836   0.04423   0.00000   0.16315   0.16268   2.26104
    D1       -2.61994  -0.00195   0.00000  -0.04014  -0.04020  -2.66014
    D2        0.52165  -0.00074   0.00000   0.01131   0.01123   0.53288
    D3       -0.52555   0.00075   0.00000  -0.01124  -0.01115  -0.53670
    D4        2.61605   0.00196   0.00000   0.04021   0.04028   2.65632
    D5        1.56885  -0.00061   0.00000  -0.02580  -0.02579   1.54306
    D6       -1.57274   0.00060   0.00000   0.02565   0.02564  -1.54710
         Item               Value     Threshold  Converged?
 Maximum Force            0.044477     0.000002     NO 
 RMS     Force            0.020225     0.000001     NO 
 Maximum Displacement     0.118837     0.000006     NO 
 RMS     Displacement     0.054833     0.000004     NO 
 Predicted change in Energy=-1.123878D-02
 GradGradGradGradGradGradGradGradGradGradGradGradGradGradGradGradGradGrad

                          Input orientation:                          
 ---------------------------------------------------------------------
 Center     Atomic      Atomic             Coordinates (Angstroms)
 Number     Number       Type             X           Y           Z
 ---------------------------------------------------------------------
      1          6           0        0.062525    1.209885   -0.028036
      2          1           0        0.410193    0.165035   -0.025724
      3          1           0        0.410169    1.730355    0.877978
      4          1           0       -1.040371    1.211573   -0.030802
      5          6           0        0.583561    1.935532   -1.284828
      6          8           0        0.735925    3.187338   -1.160462
      7          8           0        0.740133    1.201152   -2.305550
 ---------------------------------------------------------------------
                    Distance matrix (angstroms):
                    1          2          3          4          5
     1  C    0.000000
     2  H    1.101177   0.000000
     3  H    1.101184   1.807458   0.000000
     4  H    1.102901   1.788688   1.788597   0.000000
     5  C    1.541937   2.179463   2.179425   2.175743   0.000000
     6  O    2.376169   3.244695   2.526688   2.887041   1.267162
     7  O    2.376194   2.525867   3.244038   2.888734   1.267162
                    6          7
     6  O    0.000000
     7  O    2.292635   0.000000
 Stoichiometry    C2H3O2(1-)
 Framework group  C1[X(C2H3O2)]
 Deg. of freedom    15
 Full point group                 C1      NOp   1
 Largest Abelian subgroup         C1      NOp   1
 Largest concise Abelian subgroup C1      NOp   1
                         Standard orientation:                         
 ---------------------------------------------------------------------
 Center     Atomic      Atomic             Coordinates (Angstroms)
 Number     Number       Type             X           Y           Z
 ---------------------------------------------------------------------
      1          6           0       -1.336509    0.000129   -0.001057
      2          1           0       -1.718216    0.904841   -0.499440
      3          1           0       -1.718355   -0.902614   -0.502909
      4          1           0       -1.694347   -0.001940    1.042177
      5          6           0        0.205329   -0.000007   -0.018521
      6          8           0        0.744754   -1.146381    0.004852
      7          8           0        0.744995    1.146254    0.004853
 ---------------------------------------------------------------------
 Rotational constants (GHZ):     11.1592213     10.1680566      5.5064673
 Standard basis: CC-pVDZ (5D, 7F)
 There are    75 symmetry adapted cartesian basis functions of A   symmetry.
 There are    71 symmetry adapted basis functions of A   symmetry.
    71 basis functions,   153 primitive gaussians,    75 cartesian basis functions
    16 alpha electrons       16 beta electrons
       nuclear repulsion energy       111.3926770801 Hartrees.
 NAtoms=    7 NActive=    7 NUniq=    7 SFac= 1.00D+00 NAtFMM=   60 NAOKFM=F Big=F
 Integral buffers will be    131072 words long.
 Raffenetti 2 integral format.
 Two-electron integral symmetry is turned on.
 One-electron integrals computed using PRISM.
 NBasis=    71 RedAO= T EigKep=  6.02D-03  NBF=    71
 NBsUse=    71 1.00D-06 EigRej= -1.00D+00 NBFU=    71
 Initial guess from the checkpoint file:  "oac.chk"
 B after Tr=     0.000000    0.000000    0.000000
         Rot=    1.000000    0.000000   -0.000631    0.000045 Ang=  -0.07 deg.
 ExpMin= 1.22D-01 ExpMax= 1.17D+04 ExpMxC= 4.01D+02 IAcc=1 IRadAn=         1 AccDes= 0.00D+00
 Harris functional with IExCor=  402 and IRadAn=       1 diagonalized for initial guess.
 HarFok:  IExCor=  402 AccDes= 0.00D+00 IRadAn=         1 IDoV= 1 UseB2=F ITyADJ=14
 ICtDFT=  3500011 ScaDFX=  1.000000  1.000000  1.000000  1.000000
 FoFCou: FMM=F IPFlag=           0 FMFlag=      100000 FMFlg1=           0
         NFxFlg=           0 DoJE=T BraDBF=F KetDBF=T FulRan=T
         wScrn=  0.000000 ICntrl=     500 IOpCl=  0 I1Cent=   200000004 NGrid=           0
         NMat0=    1 NMatS0=      1 NMatT0=    0 NMatD0=    1 NMtDS0=    0 NMtDT0=    0
 Petite list used in FoFCou.
 Keep R1 ints in memory in canonical form, NReq=4198417.
 Requested convergence on RMS density matrix=1.00D-08 within 128 cycles.
 Requested convergence on MAX density matrix=1.00D-06.
 Requested convergence on             energy=1.00D-06.
 No special actions if energy rises.
 Integral accuracy reduced to 1.0D-05 until final iterations.
 Initial convergence to 1.0D-05 achieved.  Increase integral accuracy.
 SCF Done:  E(RB3LYP) =  -228.512333201     A.U. after   13 cycles
            NFock= 13  Conv=0.41D-08     -V/T= 2.0057
 Calling FoFJK, ICntrl=      2127 FMM=F ISym2X=0 I1Cent= 0 IOpClX= 0 NMat=1 NMatS=1 NMatT=0.
 ***** Axes restored to original set *****
 -------------------------------------------------------------------
 Center     Atomic                   Forces (Hartrees/Bohr)
 Number     Number              X              Y              Z
 -------------------------------------------------------------------
      1        6           0.003423358   -0.003384251    0.005843484
      2        1          -0.001524027   -0.002788272    0.001524304
      3        1          -0.001527979    0.000080993    0.003178967
      4        1          -0.002407336   -0.000584268    0.001025096
      5        6           0.000720423    0.010417277   -0.018073869
      6        8           0.000676611   -0.011174526   -0.002109129
      7        8           0.000638951    0.007433048    0.008611147
 -------------------------------------------------------------------
 Cartesian Forces:  Max     0.018073869 RMS     0.006112688

 GradGradGradGradGradGradGradGradGradGradGradGradGradGradGradGradGradGrad
 Berny optimization.
 Using GEDIIS/GDIIS optimizer.
 FormGI is forming the generalized inverse of G from B-inverse, IUseBI=4.
 Internal  Forces:  Max     0.013261549 RMS     0.004858273
 Search for a local minimum.
 Step number   2 out of a maximum of  100
 All quantities printed in internal units (Hartrees-Bohrs-Radians)
 Mixed Optimization -- RFO/linear search
 Update second derivatives using D2CorX and points    1    2
 DE= -1.13D-02 DEPred=-1.12D-02 R= 1.00D+00
 TightC=F SS=  1.41D+00  RLast= 2.55D-01 DXNew= 5.0454D-01 7.6393D-01
 Trust test= 1.00D+00 RLast= 2.55D-01 DXMaxT set to 5.05D-01
 ITU=  1  0
 Use linear search instead of GDIIS.
     Eigenvalues ---    0.00237   0.00259   0.07040   0.07239   0.15747
     Eigenvalues ---    0.16000   0.16010   0.24921   0.25000   0.31588
     Eigenvalues ---    0.37229   0.37230   0.37733   0.60007   0.66833
 RFO step:  Lambda=-3.26520187D-03 EMin= 2.36824106D-03
 Quartic linear search produced a step of  0.06134.
 Iteration  1 RMS(Cart)=  0.07433942 RMS(Int)=  0.02235041
 Iteration  2 RMS(Cart)=  0.01624740 RMS(Int)=  0.01406478
 Iteration  3 RMS(Cart)=  0.00042852 RMS(Int)=  0.01405632
 Iteration  4 RMS(Cart)=  0.00001609 RMS(Int)=  0.01405631
 Iteration  5 RMS(Cart)=  0.00000058 RMS(Int)=  0.01405631
 Variable       Old X    -DE/DX   Delta X   Delta X   Delta X     New X
                                 (Linear)    (Quad)   (Total)
    R1        2.08092   0.00217   0.00361   0.01346   0.01708   2.09800
    R2        2.08094   0.00217   0.00361   0.01348   0.01709   2.09803
    R3        2.08418   0.00240   0.00381   0.01454   0.01835   2.10253
    R4        2.91384   0.01326   0.00022   0.04944   0.04967   2.96351
    R5        2.39459  -0.01116  -0.00396  -0.02590  -0.02985   2.36473
    R6        2.39459  -0.01117  -0.00396  -0.02590  -0.02985   2.36474
    A1        1.92524  -0.00170   0.00090  -0.00038  -0.00014   1.92510
    A2        1.89355  -0.00236  -0.00105  -0.02206  -0.02307   1.87048
    A3        1.91937   0.00309   0.00054   0.02358   0.02377   1.94314
    A4        1.89340  -0.00237  -0.00106  -0.02217  -0.02319   1.87021
    A5        1.91931   0.00309   0.00053   0.02350   0.02369   1.94300
    A6        1.91255   0.00011   0.00012  -0.00378  -0.00362   1.90894
    A7        2.01035   0.00131  -0.00503   0.00376  -0.03620   1.97416
    A8        2.01039   0.00133  -0.00503   0.00384  -0.03612   1.97427
    A9        2.26104  -0.00250   0.00998   0.01738  -0.01178   2.24926
    D1       -2.66014   0.00026  -0.00247   0.21374   0.20559  -2.45455
    D2        0.53288  -0.00215   0.00069  -0.24376  -0.23792   0.29495
    D3       -0.53670   0.00216  -0.00068   0.24392   0.23808  -0.29862
    D4        2.65632  -0.00026   0.00247  -0.21359  -0.20543   2.45089
    D5        1.54306   0.00120  -0.00158   0.22873   0.22173   1.76480
    D6       -1.54710  -0.00121   0.00157  -0.22877  -0.22178  -1.76888
         Item               Value     Threshold  Converged?
 Maximum Force            0.013262     0.000002     NO 
 RMS     Force            0.004858     0.000001     NO 
 Maximum Displacement     0.229135     0.000006     NO 
 RMS     Displacement     0.081150     0.000004     NO 
 Predicted change in Energy=-1.889118D-03
 GradGradGradGradGradGradGradGradGradGradGradGradGradGradGradGradGradGrad

                          Input orientation:                          
 ---------------------------------------------------------------------
 Center     Atomic      Atomic             Coordinates (Angstroms)
 Number     Number       Type             X           Y           Z
 ---------------------------------------------------------------------
      1          6           0        0.050531    1.216252   -0.039215
      2          1           0        0.416621    0.168154   -0.045835
      3          1           0        0.416606    1.746419    0.864952
      4          1           0       -1.059162    1.176142    0.030622
      5          6           0        0.462308    1.972691   -1.349769
      6          8           0        0.805556    3.158543   -1.145200
      7          8           0        0.809673    1.202668   -2.272978
 ---------------------------------------------------------------------
                    Distance matrix (angstroms):
                    1          2          3          4          5
     1  C    0.000000
     2  H    1.110214   0.000000
     3  H    1.110229   1.822211   0.000000
     4  H    1.112611   1.788804   1.788635   0.000000
     5  C    1.568219   2.226811   2.226720   2.203371   0.000000
     6  O    2.359186   3.209719   2.487185   2.964733   1.251364
     7  O    2.359274   2.486940   3.208858   2.966449   1.251364
                    6          7
     6  O    0.000000
     7  O    2.257730   0.000000
 Stoichiometry    C2H3O2(1-)
 Framework group  C1[X(C2H3O2)]
 Deg. of freedom    15
 Full point group                 C1      NOp   1
 Largest Abelian subgroup         C1      NOp   1
 Largest concise Abelian subgroup C1      NOp   1
                         Standard orientation:                         
 ---------------------------------------------------------------------
 Center     Atomic      Atomic             Coordinates (Angstroms)
 Number     Number       Type             X           Y           Z
 ---------------------------------------------------------------------
      1          6           0       -1.333173    0.000306   -0.021460
      2          1           0       -1.685521    0.912343   -0.547401
      3          1           0       -1.685422   -0.909865   -0.550721
      4          1           0       -1.806474   -0.001729    0.985459
      5          6           0        0.227013   -0.000018    0.137068
      6          8           0        0.738097   -1.129019   -0.036312
      7          8           0        0.738700    1.128710   -0.036311
 ---------------------------------------------------------------------
 Rotational constants (GHZ):     11.4085681     10.1447139      5.5906743
 Standard basis: CC-pVDZ (5D, 7F)
 There are    75 symmetry adapted cartesian basis functions of A   symmetry.
 There are    71 symmetry adapted basis functions of A   symmetry.
    71 basis functions,   153 primitive gaussians,    75 cartesian basis functions
    16 alpha electrons       16 beta electrons
       nuclear repulsion energy       111.9236115810 Hartrees.
 NAtoms=    7 NActive=    7 NUniq=    7 SFac= 1.00D+00 NAtFMM=   60 NAOKFM=F Big=F
 Integral buffers will be    131072 words long.
 Raffenetti 2 integral format.
 Two-electron integral symmetry is turned on.
 One-electron integrals computed using PRISM.
 NBasis=    71 RedAO= T EigKep=  6.22D-03  NBF=    71
 NBsUse=    71 1.00D-06 EigRej= -1.00D+00 NBFU=    71
 Initial guess from the checkpoint file:  "oac.chk"
 B after Tr=     0.000000    0.000000    0.000000
         Rot=    0.999989    0.000005    0.004606    0.000066 Ang=   0.53 deg.
 ExpMin= 1.22D-01 ExpMax= 1.17D+04 ExpMxC= 4.01D+02 IAcc=1 IRadAn=         1 AccDes= 0.00D+00
 Harris functional with IExCor=  402 and IRadAn=       1 diagonalized for initial guess.
 HarFok:  IExCor=  402 AccDes= 0.00D+00 IRadAn=         1 IDoV= 1 UseB2=F ITyADJ=14
 ICtDFT=  3500011 ScaDFX=  1.000000  1.000000  1.000000  1.000000
 FoFCou: FMM=F IPFlag=           0 FMFlag=      100000 FMFlg1=           0
         NFxFlg=           0 DoJE=T BraDBF=F KetDBF=T FulRan=T
         wScrn=  0.000000 ICntrl=     500 IOpCl=  0 I1Cent=   200000004 NGrid=           0
         NMat0=    1 NMatS0=      1 NMatT0=    0 NMatD0=    1 NMtDS0=    0 NMtDT0=    0
 Petite list used in FoFCou.
 Keep R1 ints in memory in canonical form, NReq=4198417.
 Requested convergence on RMS density matrix=1.00D-08 within 128 cycles.
 Requested convergence on MAX density matrix=1.00D-06.
 Requested convergence on             energy=1.00D-06.
 No special actions if energy rises.
 Integral accuracy reduced to 1.0D-05 until final iterations.
 Initial convergence to 1.0D-05 achieved.  Increase integral accuracy.
 SCF Done:  E(RB3LYP) =  -228.500948919     A.U. after   14 cycles
            NFock= 14  Conv=0.72D-08     -V/T= 2.0054
 Calling FoFJK, ICntrl=      2127 FMM=F ISym2X=0 I1Cent= 0 IOpClX= 0 NMat=1 NMatS=1 NMatT=0.
 ***** Axes restored to original set *****
 -------------------------------------------------------------------
 Center     Atomic                   Forces (Hartrees/Bohr)
 Number     Number              X              Y              Z
 -------------------------------------------------------------------
      1        6          -0.021600590   -0.003111320    0.005319729
      2        1          -0.001334494    0.004370284   -0.001215394
      3        1          -0.001321939   -0.001134128   -0.004410888
      4        1           0.000151640   -0.002312897    0.004009806
      5        6           0.060961347   -0.016956440    0.029620758
      6        8          -0.018455515    0.020928727   -0.010117147
      7        8          -0.018400450   -0.001784225   -0.023206865
 -------------------------------------------------------------------
 Cartesian Forces:  Max     0.060961347 RMS     0.018533563

 GradGradGradGradGradGradGradGradGradGradGradGradGradGradGradGradGradGrad
 Berny optimization.
 Using GEDIIS/GDIIS optimizer.
 FormGI is forming the generalized inverse of G from B-inverse, IUseBI=4.
 Internal  Forces:  Max     0.020291665 RMS     0.012526615
 Search for a local minimum.
 Step number   3 out of a maximum of  100
 All quantities printed in internal units (Hartrees-Bohrs-Radians)
 Mixed Optimization -- RFO/linear search
 Update second derivatives using D2CorX and points    1    3    2
 DE=  1.14D-02 DEPred=-1.89D-03 R=-6.03D+00
 Trust test=-6.03D+00 RLast= 5.53D-01 DXMaxT set to 2.52D-01
 ITU= -1  1  0
 Use linear search instead of GDIIS.
 Energy rises -- skip Quadratic/GDIIS search.
 Quartic linear search produced a step of -0.88049.
 Iteration  1 RMS(Cart)=  0.07029488 RMS(Int)=  0.01068384
 Iteration  2 RMS(Cart)=  0.01108685 RMS(Int)=  0.00144447
 Iteration  3 RMS(Cart)=  0.00006887 RMS(Int)=  0.00144320
 Iteration  4 RMS(Cart)=  0.00000002 RMS(Int)=  0.00144320
 Variable       Old X    -DE/DX   Delta X   Delta X   Delta X     New X
                                 (Linear)    (Quad)   (Total)
    R1        2.09800  -0.00456  -0.01504   0.00000  -0.01504   2.08296
    R2        2.09803  -0.00457  -0.01505   0.00000  -0.01505   2.08298
    R3        2.10253   0.00018  -0.01616   0.00000  -0.01616   2.08637
    R4        2.96351   0.01048  -0.04373   0.00000  -0.04373   2.91977
    R5        2.36473   0.01312   0.02629   0.00000   0.02629   2.39102
    R6        2.36474   0.01311   0.02629   0.00000   0.02629   2.39102
    A1        1.92510   0.00147   0.00012   0.00000   0.00019   1.92529
    A2        1.87048  -0.00190   0.02031   0.00000   0.02031   1.89079
    A3        1.94314  -0.00263  -0.02093   0.00000  -0.02089   1.92225
    A4        1.87021  -0.00189   0.02042   0.00000   0.02042   1.89063
    A5        1.94300  -0.00265  -0.02086   0.00000  -0.02082   1.92218
    A6        1.90894   0.00778   0.00319   0.00000   0.00318   1.91212
    A7        1.97416   0.01401   0.03187   0.00000   0.03569   2.00985
    A8        1.97427   0.01400   0.03180   0.00000   0.03562   2.00989
    A9        2.24926  -0.00895   0.01037   0.00000   0.01419   2.26345
    D1       -2.45455  -0.01836  -0.18102   0.00000  -0.18099  -2.63554
    D2        0.29495   0.02029   0.20949   0.00000   0.20952   0.50447
    D3       -0.29862  -0.02029  -0.20963   0.00000  -0.20966  -0.50827
    D4        2.45089   0.01835   0.18088   0.00000   0.18085   2.63174
    D5        1.76480  -0.01933  -0.19524   0.00000  -0.19523   1.56956
    D6       -1.76888   0.01931   0.19528   0.00000   0.19527  -1.57361
         Item               Value     Threshold  Converged?
 Maximum Force            0.020292     0.000002     NO 
 RMS     Force            0.012527     0.000001     NO 
 Maximum Displacement     0.202009     0.000006     NO 
 RMS     Displacement     0.071627     0.000004     NO 
 Predicted change in Energy=-7.257333D-04
 GradGradGradGradGradGradGradGradGradGradGradGradGradGradGradGradGradGrad

                          Input orientation:                          
 ---------------------------------------------------------------------
 Center     Atomic      Atomic             Coordinates (Angstroms)
 Number     Number       Type             X           Y           Z
 ---------------------------------------------------------------------
      1          6           0        0.060817    1.210219   -0.028633
      2          1           0        0.410638    0.164947   -0.027374
      3          1           0        0.410618    1.731851    0.877196
      4          1           0       -1.043224    1.206965   -0.022814
      5          6           0        0.569207    1.939747   -1.292198
      6          8           0        0.744938    3.185741   -1.159778
      7          8           0        0.749140    1.201398   -2.303823
 ---------------------------------------------------------------------
                    Distance matrix (angstroms):
                    1          2          3          4          5
     1  C    0.000000
     2  H    1.102257   0.000000
     3  H    1.102265   1.809264   0.000000
     4  H    1.104061   1.788725   1.788626   0.000000
     5  C    1.545078   2.185140   2.185095   2.179045   0.000000
     6  O    2.377015   3.243346   2.524843   2.899270   1.265274
     7  O    2.377048   2.524091   3.242662   2.900965   1.265274
                    6          7
     6  O    0.000000
     7  O    2.290517   0.000000
 Stoichiometry    C2H3O2(1-)
 Framework group  C1[X(C2H3O2)]
 Deg. of freedom    15
 Full point group                 C1      NOp   1
 Largest Abelian subgroup         C1      NOp   1
 Largest concise Abelian subgroup C1      NOp   1
                         Standard orientation:                         
 ---------------------------------------------------------------------
 Center     Atomic      Atomic             Coordinates (Angstroms)
 Number     Number       Type             X           Y           Z
 ---------------------------------------------------------------------
      1          6           0       -1.337710    0.000151   -0.003663
      2          1           0       -1.715956    0.905761   -0.505430
      3          1           0       -1.716065   -0.903500   -0.508886
      4          1           0       -1.709608   -0.001916    1.035875
      5          6           0        0.207364   -0.000008   -0.000200
      6          8           0        0.745089   -1.145334    0.000101
      7          8           0        0.745374    1.145184    0.000102
 ---------------------------------------------------------------------
 Rotational constants (GHZ):     11.1789830     10.1487301      5.5049065
 Standard basis: CC-pVDZ (5D, 7F)
 There are    75 symmetry adapted cartesian basis functions of A   symmetry.
 There are    71 symmetry adapted basis functions of A   symmetry.
    71 basis functions,   153 primitive gaussians,    75 cartesian basis functions
    16 alpha electrons       16 beta electrons
       nuclear repulsion energy       111.4057801870 Hartrees.
 NAtoms=    7 NActive=    7 NUniq=    7 SFac= 1.00D+00 NAtFMM=   60 NAOKFM=F Big=F
 Integral buffers will be    131072 words long.
 Raffenetti 2 integral format.
 Two-electron integral symmetry is turned on.
 One-electron integrals computed using PRISM.
 NBasis=    71 RedAO= T EigKep=  6.06D-03  NBF=    71
 NBsUse=    71 1.00D-06 EigRej= -1.00D+00 NBFU=    71
 Lowest energy guess from the checkpoint file:  "oac.chk"
 B after Tr=     0.000000    0.000000    0.000000
         Rot=    1.000000    0.000000    0.000603    0.000008 Ang=   0.07 deg.
 B after Tr=     0.000000    0.000000    0.000000
         Rot=    0.999992   -0.000004   -0.003983   -0.000058 Ang=  -0.46 deg.
 Keep R1 ints in memory in canonical form, NReq=4198417.
 Requested convergence on RMS density matrix=1.00D-08 within 128 cycles.
 Requested convergence on MAX density matrix=1.00D-06.
 Requested convergence on             energy=1.00D-06.
 No special actions if energy rises.
 Integral accuracy reduced to 1.0D-05 until final iterations.
 Initial convergence to 1.0D-05 achieved.  Increase integral accuracy.
 SCF Done:  E(RB3LYP) =  -228.512531581     A.U. after   10 cycles
            NFock= 10  Conv=0.68D-08     -V/T= 2.0057
 Calling FoFJK, ICntrl=      2127 FMM=F ISym2X=0 I1Cent= 0 IOpClX= 0 NMat=1 NMatS=1 NMatT=0.
 ***** Axes restored to original set *****
 -------------------------------------------------------------------
 Center     Atomic                   Forces (Hartrees/Bohr)
 Number     Number              X              Y              Z
 -------------------------------------------------------------------
      1        6           0.000703296   -0.003050787    0.005259539
      2        1          -0.001462515   -0.001897054    0.001169120
      3        1          -0.001464473   -0.000057703    0.002227135
      4        1          -0.002085286   -0.000775136    0.001354667
      5        6           0.008613411    0.007448669   -0.012895698
      6        8          -0.002137003   -0.008601576   -0.003032693
      7        8          -0.002167431    0.006933588    0.005917930
 -------------------------------------------------------------------
 Cartesian Forces:  Max     0.012895698 RMS     0.005023657

 GradGradGradGradGradGradGradGradGradGradGradGradGradGradGradGradGradGrad
 Berny optimization.
 Using GEDIIS/GDIIS optimizer.
 FormGI is forming the generalized inverse of G from B-inverse, IUseBI=4.
 Internal  Forces:  Max     0.012333811 RMS     0.004195124
 Search for a local minimum.
 Step number   4 out of a maximum of  100
 All quantities printed in internal units (Hartrees-Bohrs-Radians)
 Mixed Optimization -- RFO/linear search
 Update second derivatives using D2CorX and points    1    3    2    4
 ITU=  0 -1  1  0
 Use linear search instead of GDIIS.
     Eigenvalues ---    0.00237   0.06112   0.07235   0.08159   0.13118
     Eigenvalues ---    0.16000   0.16655   0.21041   0.25000   0.26724
     Eigenvalues ---    0.37230   0.37275   0.37877   0.57018   0.66833
 RFO step:  Lambda=-2.43163607D-03 EMin= 2.36824106D-03
 Quartic linear search produced a step of  0.00293.
 Iteration  1 RMS(Cart)=  0.04432694 RMS(Int)=  0.00091237
 Iteration  2 RMS(Cart)=  0.00067677 RMS(Int)=  0.00051546
 Iteration  3 RMS(Cart)=  0.00000027 RMS(Int)=  0.00051546
 Variable       Old X    -DE/DX   Delta X   Delta X   Delta X     New X
                                 (Linear)    (Quad)   (Total)
    R1        2.08296   0.00134   0.00001   0.01279   0.01279   2.09576
    R2        2.08298   0.00134   0.00001   0.01280   0.01281   2.09579
    R3        2.08637   0.00209   0.00001   0.01541   0.01541   2.10179
    R4        2.91977   0.01233   0.00002   0.08952   0.08954   3.00932
    R5        2.39102  -0.00908  -0.00001  -0.03485  -0.03486   2.35616
    R6        2.39102  -0.00909  -0.00001  -0.03485  -0.03486   2.35616
    A1        1.92529  -0.00130   0.00000  -0.00333  -0.00483   1.92046
    A2        1.89079  -0.00225  -0.00001  -0.03683  -0.03676   1.85403
    A3        1.92225   0.00235   0.00001   0.03834   0.03751   1.95976
    A4        1.89063  -0.00225  -0.00001  -0.03701  -0.03694   1.85369
    A5        1.92218   0.00234   0.00001   0.03819   0.03736   1.95954
    A6        1.91212   0.00097   0.00000  -0.00193  -0.00185   1.91027
    A7        2.00985   0.00138   0.00000   0.00717   0.00678   2.01663
    A8        2.00989   0.00140   0.00000   0.00731   0.00692   2.01681
    A9        2.26345  -0.00278   0.00001  -0.01440  -0.01478   2.24867
    D1       -2.63554  -0.00180   0.00007  -0.04671  -0.04722  -2.68277
    D2        0.50447   0.00034  -0.00008   0.00045  -0.00024   0.50423
    D3       -0.50827  -0.00033   0.00008  -0.00037   0.00031  -0.50796
    D4        2.63174   0.00180  -0.00007   0.04678   0.04730   2.67905
    D5        1.56956  -0.00107   0.00008  -0.02369  -0.02361   1.54595
    D6       -1.57361   0.00106  -0.00008   0.02346   0.02338  -1.55023
         Item               Value     Threshold  Converged?
 Maximum Force            0.012334     0.000002     NO 
 RMS     Force            0.004195     0.000001     NO 
 Maximum Displacement     0.086913     0.000006     NO 
 RMS     Displacement     0.043983     0.000004     NO 
 Predicted change in Energy=-1.254125D-03
 GradGradGradGradGradGradGradGradGradGradGradGradGradGradGradGradGradGrad

                          Input orientation:                          
 ---------------------------------------------------------------------
 Center     Atomic      Atomic             Coordinates (Angstroms)
 Number     Number       Type             X           Y           Z
 ---------------------------------------------------------------------
      1          6           0        0.074839    1.203305   -0.016736
      2          1           0        0.388333    0.139801    0.008145
      3          1           0        0.388304    1.713743    0.916630
      4          1           0       -1.037353    1.199738   -0.010154
      5          6           0        0.594997    1.955891   -1.320187
      6          8           0        0.744402    3.188435   -1.205771
      7          8           0        0.748611    1.239956   -2.329352
 ---------------------------------------------------------------------
                    Distance matrix (angstroms):
                    1          2          3          4          5
     1  C    0.000000
     2  H    1.109026   0.000000
     3  H    1.109044   1.817316   0.000000
     4  H    1.112218   1.776622   1.776409   0.000000
     5  C    1.592462   2.259505   2.259360   2.225427   0.000000
     6  O    2.408913   3.300689   2.608852   2.925589   1.246827
     7  O    2.409047   2.608454   3.300105   2.927450   1.246826
                    6          7
     6  O    0.000000
     7  O    2.249228   0.000000
 Stoichiometry    C2H3O2(1-)
 Framework group  C1[X(C2H3O2)]
 Deg. of freedom    15
 Full point group                 C1      NOp   1
 Largest Abelian subgroup         C1      NOp   1
 Largest concise Abelian subgroup C1      NOp   1
                         Standard orientation:                         
 ---------------------------------------------------------------------
 Center     Atomic      Atomic             Coordinates (Angstroms)
 Number     Number       Type             X           Y           Z
 ---------------------------------------------------------------------
      1          6           0       -1.368684    0.000360   -0.006975
      2          1           0       -1.792252    0.909956   -0.479379
      3          1           0       -1.792478   -0.907357   -0.482819
      4          1           0       -1.731935   -0.001804    1.044249
      5          6           0        0.223741   -0.000008   -0.017753
      6          8           0        0.761283   -1.124795    0.004143
      7          8           0        0.762007    1.124432    0.004147
 ---------------------------------------------------------------------
 Rotational constants (GHZ):     11.5663940      9.6748493      5.4464943
 Standard basis: CC-pVDZ (5D, 7F)
 There are    75 symmetry adapted cartesian basis functions of A   symmetry.
 There are    71 symmetry adapted basis functions of A   symmetry.
    71 basis functions,   153 primitive gaussians,    75 cartesian basis functions
    16 alpha electrons       16 beta electrons
       nuclear repulsion energy       111.2614977883 Hartrees.
 NAtoms=    7 NActive=    7 NUniq=    7 SFac= 1.00D+00 NAtFMM=   60 NAOKFM=F Big=F
 Integral buffers will be    131072 words long.
 Raffenetti 2 integral format.
 Two-electron integral symmetry is turned on.
 One-electron integrals computed using PRISM.
 NBasis=    71 RedAO= T EigKep=  6.78D-03  NBF=    71
 NBsUse=    71 1.00D-06 EigRej= -1.00D+00 NBFU=    71
 Initial guess from the checkpoint file:  "oac.chk"
 B after Tr=     0.000000    0.000000    0.000000
         Rot=    0.999999   -0.000002   -0.001705    0.000075 Ang=  -0.20 deg.
 ExpMin= 1.22D-01 ExpMax= 1.17D+04 ExpMxC= 4.01D+02 IAcc=1 IRadAn=         1 AccDes= 0.00D+00
 Harris functional with IExCor=  402 and IRadAn=       1 diagonalized for initial guess.
 HarFok:  IExCor=  402 AccDes= 0.00D+00 IRadAn=         1 IDoV= 1 UseB2=F ITyADJ=14
 ICtDFT=  3500011 ScaDFX=  1.000000  1.000000  1.000000  1.000000
 FoFCou: FMM=F IPFlag=           0 FMFlag=      100000 FMFlg1=           0
         NFxFlg=           0 DoJE=T BraDBF=F KetDBF=T FulRan=T
         wScrn=  0.000000 ICntrl=     500 IOpCl=  0 I1Cent=   200000004 NGrid=           0
         NMat0=    1 NMatS0=      1 NMatT0=    0 NMatD0=    1 NMtDS0=    0 NMtDT0=    0
 Petite list used in FoFCou.
 Keep R1 ints in memory in canonical form, NReq=4198417.
 Requested convergence on RMS density matrix=1.00D-08 within 128 cycles.
 Requested convergence on MAX density matrix=1.00D-06.
 Requested convergence on             energy=1.00D-06.
 No special actions if energy rises.
 Integral accuracy reduced to 1.0D-05 until final iterations.
 Initial convergence to 1.0D-05 achieved.  Increase integral accuracy.
 SCF Done:  E(RB3LYP) =  -228.512695976     A.U. after   12 cycles
            NFock= 12  Conv=0.50D-08     -V/T= 2.0056
 Calling FoFJK, ICntrl=      2127 FMM=F ISym2X=0 I1Cent= 0 IOpClX= 0 NMat=1 NMatS=1 NMatT=0.
 ***** Axes restored to original set *****
 -------------------------------------------------------------------
 Center     Atomic                   Forces (Hartrees/Bohr)
 Number     Number              X              Y              Z
 -------------------------------------------------------------------
      1        6          -0.001124287    0.000031301   -0.000035894
      2        1           0.000745259    0.002495259   -0.000723443
      3        1           0.000749630   -0.000625198   -0.002526113
      4        1           0.001936808    0.000715007   -0.001249662
      5        6          -0.004807903   -0.003016870    0.005209465
      6        8           0.001226226    0.011794071    0.006344337
      7        8           0.001274266   -0.011393570   -0.007018690
 -------------------------------------------------------------------
 Cartesian Forces:  Max     0.011794071 RMS     0.004591084

 GradGradGradGradGradGradGradGradGradGradGradGradGradGradGradGradGradGrad
 Berny optimization.
 Using GEDIIS/GDIIS optimizer.
 FormGI is forming the generalized inverse of G from B-inverse, IUseBI=4.
 Internal  Forces:  Max     0.012388044 RMS     0.004702655
 Search for a local minimum.
 Step number   5 out of a maximum of  100
 All quantities printed in internal units (Hartrees-Bohrs-Radians)
 Mixed Optimization -- RFO/linear search
 Update second derivatives using D2CorX and points    1    3    2    4    5
 DE= -1.64D-04 DEPred=-1.25D-03 R= 1.31D-01
 Trust test= 1.31D-01 RLast= 1.50D-01 DXMaxT set to 2.52D-01
 ITU=  0  0 -1  1  0
 Use linear search instead of GDIIS.
     Eigenvalues ---    0.00237   0.06320   0.07147   0.08390   0.14909
     Eigenvalues ---    0.16000   0.16644   0.21234   0.25000   0.29778
     Eigenvalues ---    0.37180   0.37230   0.37463   0.66833   0.71361
 RFO step:  Lambda=-9.91148859D-05 EMin= 2.36824105D-03
 Quartic linear search produced a step of -0.46725.
 Iteration  1 RMS(Cart)=  0.01905066 RMS(Int)=  0.00021555
 Iteration  2 RMS(Cart)=  0.00015150 RMS(Int)=  0.00016043
 Iteration  3 RMS(Cart)=  0.00000001 RMS(Int)=  0.00016043
 Variable       Old X    -DE/DX   Delta X   Delta X   Delta X     New X
                                 (Linear)    (Quad)   (Total)
    R1        2.09576  -0.00220  -0.00598  -0.00082  -0.00679   2.08896
    R2        2.09579  -0.00220  -0.00599  -0.00082  -0.00680   2.08899
    R3        2.10179  -0.00195  -0.00720   0.00064  -0.00656   2.09522
    R4        3.00932  -0.00570  -0.04184   0.01248  -0.02936   2.97996
    R5        2.35616   0.01239   0.01629   0.00208   0.01837   2.37453
    R6        2.35616   0.01238   0.01629   0.00208   0.01836   2.37452
    A1        1.92046   0.00082   0.00226  -0.00130   0.00143   1.92189
    A2        1.85403   0.00171   0.01718  -0.00201   0.01514   1.86917
    A3        1.95976  -0.00135  -0.01753   0.00307  -0.01421   1.94555
    A4        1.85369   0.00171   0.01726  -0.00200   0.01523   1.86892
    A5        1.95954  -0.00135  -0.01746   0.00303  -0.01417   1.94537
    A6        1.91027  -0.00121   0.00086  -0.00138  -0.00055   1.90972
    A7        2.01663  -0.00395  -0.00317  -0.00617  -0.00922   2.00741
    A8        2.01681  -0.00396  -0.00323  -0.00616  -0.00927   2.00754
    A9        2.24867   0.00797   0.00690   0.01216   0.01918   2.26786
    D1       -2.68277   0.00134   0.02207  -0.00310   0.01915  -2.66361
    D2        0.50423  -0.00032   0.00011  -0.00003   0.00028   0.50451
    D3       -0.50796   0.00032  -0.00015  -0.00007  -0.00041  -0.50837
    D4        2.67905  -0.00135  -0.02210   0.00301  -0.01929   2.65976
    D5        1.54595   0.00084   0.01103  -0.00159   0.00944   1.55539
    D6       -1.55023  -0.00083  -0.01092   0.00148  -0.00944  -1.55967
         Item               Value     Threshold  Converged?
 Maximum Force            0.012388     0.000002     NO 
 RMS     Force            0.004703     0.000001     NO 
 Maximum Displacement     0.044021     0.000006     NO 
 RMS     Displacement     0.019151     0.000004     NO 
 Predicted change in Energy=-5.140567D-04
 GradGradGradGradGradGradGradGradGradGradGradGradGradGradGradGradGradGrad

                          Input orientation:                          
 ---------------------------------------------------------------------
 Center     Atomic      Atomic             Coordinates (Angstroms)
 Number     Number       Type             X           Y           Z
 ---------------------------------------------------------------------
      1          6           0        0.069590    1.206156   -0.021648
      2          1           0        0.397331    0.150550   -0.005513
      3          1           0        0.397355    1.720150    0.900516
      4          1           0       -1.039138    1.203323   -0.016384
      5          6           0        0.585857    1.951190   -1.312033
      6          8           0        0.743426    3.191069   -1.182476
      7          8           0        0.747713    1.218430   -2.319886
 ---------------------------------------------------------------------
                    Distance matrix (angstroms):
                    1          2          3          4          5
     1  C    0.000000
     2  H    1.105431   0.000000
     3  H    1.105444   1.812328   0.000000
     4  H    1.108745   1.780981   1.780822   0.000000
     5  C    1.576927   2.232675   2.232551   2.208759   0.000000
     6  O    2.396133   3.278685   2.573368   2.913492   1.256548
     7  O    2.396226   2.572830   3.278027   2.915336   1.256544
                    6          7
     6  O    0.000000
     7  O    2.277065   0.000000
 Stoichiometry    C2H3O2(1-)
 Framework group  C1[X(C2H3O2)]
 Deg. of freedom    15
 Full point group                 C1      NOp   1
 Largest Abelian subgroup         C1      NOp   1
 Largest concise Abelian subgroup C1      NOp   1
                         Standard orientation:                         
 ---------------------------------------------------------------------
 Center     Atomic      Atomic             Coordinates (Angstroms)
 Number     Number       Type             X           Y           Z
 ---------------------------------------------------------------------
      1          6           0       -1.355434    0.000298   -0.005577
      2          1           0       -1.761511    0.907441   -0.489489
      3          1           0       -1.761694   -0.904883   -0.493025
      4          1           0       -1.720568   -0.001871    1.041317
      5          6           0        0.221484   -0.000011   -0.010846
      6          8           0        0.752672   -1.138683    0.002482
      7          8           0        0.753262    1.138382    0.002484
 ---------------------------------------------------------------------
 Rotational constants (GHZ):     11.3051938      9.8833372      5.4532113
 Standard basis: CC-pVDZ (5D, 7F)
 There are    75 symmetry adapted cartesian basis functions of A   symmetry.
 There are    71 symmetry adapted basis functions of A   symmetry.
    71 basis functions,   153 primitive gaussians,    75 cartesian basis functions
    16 alpha electrons       16 beta electrons
       nuclear repulsion energy       111.1383002181 Hartrees.
 NAtoms=    7 NActive=    7 NUniq=    7 SFac= 1.00D+00 NAtFMM=   60 NAOKFM=F Big=F
 Integral buffers will be    131072 words long.
 Raffenetti 2 integral format.
 Two-electron integral symmetry is turned on.
 One-electron integrals computed using PRISM.
 NBasis=    71 RedAO= T EigKep=  6.56D-03  NBF=    71
 NBsUse=    71 1.00D-06 EigRej= -1.00D+00 NBFU=    71
 Initial guess from the checkpoint file:  "oac.chk"
 B after Tr=     0.000000    0.000000    0.000000
         Rot=    1.000000   -0.000002    0.000598   -0.000022 Ang=  -0.07 deg.
 ExpMin= 1.22D-01 ExpMax= 1.17D+04 ExpMxC= 4.01D+02 IAcc=1 IRadAn=         1 AccDes= 0.00D+00
 Harris functional with IExCor=  402 and IRadAn=       1 diagonalized for initial guess.
 HarFok:  IExCor=  402 AccDes= 0.00D+00 IRadAn=         1 IDoV= 1 UseB2=F ITyADJ=14
 ICtDFT=  3500011 ScaDFX=  1.000000  1.000000  1.000000  1.000000
 FoFCou: FMM=F IPFlag=           0 FMFlag=      100000 FMFlg1=           0
         NFxFlg=           0 DoJE=T BraDBF=F KetDBF=T FulRan=T
         wScrn=  0.000000 ICntrl=     500 IOpCl=  0 I1Cent=   200000004 NGrid=           0
         NMat0=    1 NMatS0=      1 NMatT0=    0 NMatD0=    1 NMtDS0=    0 NMtDT0=    0
 Petite list used in FoFCou.
 Keep R1 ints in memory in canonical form, NReq=4198417.
 Requested convergence on RMS density matrix=1.00D-08 within 128 cycles.
 Requested convergence on MAX density matrix=1.00D-06.
 Requested convergence on             energy=1.00D-06.
 No special actions if energy rises.
 Integral accuracy reduced to 1.0D-05 until final iterations.
 Initial convergence to 1.0D-05 achieved.  Increase integral accuracy.
 SCF Done:  E(RB3LYP) =  -228.513211814     A.U. after   12 cycles
            NFock= 12  Conv=0.45D-08     -V/T= 2.0057
 Calling FoFJK, ICntrl=      2127 FMM=F ISym2X=0 I1Cent= 0 IOpClX= 0 NMat=1 NMatS=1 NMatT=0.
 ***** Axes restored to original set *****
 -------------------------------------------------------------------
 Center     Atomic                   Forces (Hartrees/Bohr)
 Number     Number              X              Y              Z
 -------------------------------------------------------------------
      1        6          -0.000093481   -0.000317077    0.000550220
      2        1          -0.000006729    0.000258634   -0.000103301
      3        1          -0.000006763   -0.000040201   -0.000276249
      4        1           0.000231901    0.000104820   -0.000181140
      5        6          -0.000271316    0.000060848   -0.000109655
      6        8           0.000074199   -0.000592585   -0.000262164
      7        8           0.000072189    0.000525562    0.000382289
 -------------------------------------------------------------------
 Cartesian Forces:  Max     0.000592585 RMS     0.000276671

 GradGradGradGradGradGradGradGradGradGradGradGradGradGradGradGradGradGrad
 Berny optimization.
 Using GEDIIS/GDIIS optimizer.
 FormGI is forming the generalized inverse of G from B-inverse, IUseBI=4.
 Internal  Forces:  Max     0.000603728 RMS     0.000249164
 Search for a local minimum.
 Step number   6 out of a maximum of  100
 All quantities printed in internal units (Hartrees-Bohrs-Radians)
 Mixed Optimization -- En-DIIS/RFO-DIIS
 Update second derivatives using D2CorX and points    1    3    2    4    5
                                                      6
 DE= -5.16D-04 DEPred=-5.14D-04 R= 1.00D+00
 TightC=F SS=  1.41D+00  RLast= 6.32D-02 DXNew= 4.2426D-01 1.8960D-01
 Trust test= 1.00D+00 RLast= 6.32D-02 DXMaxT set to 2.52D-01
 ITU=  1  0  0 -1  1  0
 Use linear search instead of GDIIS.
     Eigenvalues ---    0.00237   0.06471   0.07186   0.08289   0.14670
     Eigenvalues ---    0.16000   0.16579   0.21750   0.25000   0.31496
     Eigenvalues ---    0.37230   0.37261   0.37958   0.66833   0.73894
 RFO step:  Lambda=-3.08980376D-06 EMin= 2.36824072D-03
 Quartic linear search produced a step of -0.01400.
 Iteration  1 RMS(Cart)=  0.00076433 RMS(Int)=  0.00000118
 Iteration  2 RMS(Cart)=  0.00000062 RMS(Int)=  0.00000101
 Variable       Old X    -DE/DX   Delta X   Delta X   Delta X     New X
                                 (Linear)    (Quad)   (Total)
    R1        2.08896  -0.00025   0.00010  -0.00079  -0.00070   2.08826
    R2        2.08899  -0.00025   0.00010  -0.00079  -0.00070   2.08829
    R3        2.09522  -0.00023   0.00009  -0.00071  -0.00062   2.09460
    R4        2.97996  -0.00005   0.00041  -0.00090  -0.00049   2.97947
    R5        2.37453  -0.00060  -0.00026  -0.00041  -0.00066   2.37387
    R6        2.37452  -0.00060  -0.00026  -0.00041  -0.00067   2.37386
    A1        1.92189   0.00012  -0.00002   0.00091   0.00089   1.92278
    A2        1.86917   0.00017  -0.00021   0.00136   0.00115   1.87032
    A3        1.94555  -0.00010   0.00020  -0.00099  -0.00079   1.94476
    A4        1.86892   0.00017  -0.00021   0.00136   0.00114   1.87006
    A5        1.94537  -0.00010   0.00020  -0.00100  -0.00080   1.94457
    A6        1.90972  -0.00025   0.00001  -0.00147  -0.00147   1.90826
    A7        2.00741   0.00019   0.00013   0.00048   0.00061   2.00802
    A8        2.00754   0.00019   0.00013   0.00049   0.00062   2.00816
    A9        2.26786  -0.00037  -0.00027  -0.00092  -0.00119   2.26666
    D1       -2.66361   0.00005  -0.00027   0.00093   0.00066  -2.66295
    D2        0.50451  -0.00007   0.00000  -0.00076  -0.00076   0.50375
    D3       -0.50837   0.00007   0.00001   0.00065   0.00066  -0.50771
    D4        2.65976  -0.00005   0.00027  -0.00103  -0.00076   2.65900
    D5        1.55539   0.00006  -0.00013   0.00079   0.00066   1.55605
    D6       -1.55967  -0.00006   0.00013  -0.00090  -0.00076  -1.56043
         Item               Value     Threshold  Converged?
 Maximum Force            0.000604     0.000002     NO 
 RMS     Force            0.000249     0.000001     NO 
 Maximum Displacement     0.001384     0.000006     NO 
 RMS     Displacement     0.000765     0.000004     NO 
 Predicted change in Energy=-1.652185D-06
 GradGradGradGradGradGradGradGradGradGradGradGradGradGradGradGradGradGrad

                          Input orientation:                          
 ---------------------------------------------------------------------
 Center     Atomic      Atomic             Coordinates (Angstroms)
 Number     Number       Type             X           Y           Z
 ---------------------------------------------------------------------
      1          6           0        0.069427    1.205894   -0.021195
      2          1           0        0.397625    0.150803   -0.005932
      3          1           0        0.397689    1.720363    0.900082
      4          1           0       -1.038980    1.203716   -0.017015
      5          6           0        0.585124    1.950887   -1.311513
      6          8           0        0.743450    3.190375   -1.182544
      7          8           0        0.747799    1.218829   -2.319306
 ---------------------------------------------------------------------
                    Distance matrix (angstroms):
                    1          2          3          4          5
     1  C    0.000000
     2  H    1.105062   0.000000
     3  H    1.105073   1.812286   0.000000
     4  H    1.108417   1.781174   1.781014   0.000000
     5  C    1.576667   2.231592   2.231463   2.207194   0.000000
     6  O    2.396081   3.277653   2.572511   2.912444   1.256197
     7  O    2.396178   2.571965   3.276976   2.914336   1.256192
                    6          7
     6  O    0.000000
     7  O    2.275795   0.000000
 Stoichiometry    C2H3O2(1-)
 Framework group  C1[X(C2H3O2)]
 Deg. of freedom    15
 Full point group                 C1      NOp   1
 Largest Abelian subgroup         C1      NOp   1
 Largest concise Abelian subgroup C1      NOp   1
                         Standard orientation:                         
 ---------------------------------------------------------------------
 Center     Atomic      Atomic             Coordinates (Angstroms)
 Number     Number       Type             X           Y           Z
 ---------------------------------------------------------------------
      1          6           0       -1.355646    0.000306   -0.005621
      2          1           0       -1.760605    0.907454   -0.489617
      3          1           0       -1.760790   -0.904828   -0.493245
      4          1           0       -1.719492   -0.001917    1.041374
      5          6           0        0.221015   -0.000010   -0.010356
      6          8           0        0.752738   -1.138052    0.002334
      7          8           0        0.753346    1.137742    0.002335
 ---------------------------------------------------------------------
 Rotational constants (GHZ):     11.3168452      9.8835912      5.4560367
 Standard basis: CC-pVDZ (5D, 7F)
 There are    75 symmetry adapted cartesian basis functions of A   symmetry.
 There are    71 symmetry adapted basis functions of A   symmetry.
    71 basis functions,   153 primitive gaussians,    75 cartesian basis functions
    16 alpha electrons       16 beta electrons
       nuclear repulsion energy       111.1684153451 Hartrees.
 NAtoms=    7 NActive=    7 NUniq=    7 SFac= 1.00D+00 NAtFMM=   60 NAOKFM=F Big=F
 Integral buffers will be    131072 words long.
 Raffenetti 2 integral format.
 Two-electron integral symmetry is turned on.
 One-electron integrals computed using PRISM.
 NBasis=    71 RedAO= T EigKep=  6.55D-03  NBF=    71
 NBsUse=    71 1.00D-06 EigRej= -1.00D+00 NBFU=    71
 Initial guess from the checkpoint file:  "oac.chk"
 B after Tr=     0.000000    0.000000    0.000000
         Rot=    1.000000   -0.000003   -0.000009    0.000003 Ang=   0.00 deg.
 Keep R1 ints in memory in canonical form, NReq=4198417.
 Requested convergence on RMS density matrix=1.00D-08 within 128 cycles.
 Requested convergence on MAX density matrix=1.00D-06.
 Requested convergence on             energy=1.00D-06.
 No special actions if energy rises.
 SCF Done:  E(RB3LYP) =  -228.513213687     A.U. after    8 cycles
            NFock=  8  Conv=0.62D-08     -V/T= 2.0057
 Calling FoFJK, ICntrl=      2127 FMM=F ISym2X=0 I1Cent= 0 IOpClX= 0 NMat=1 NMatS=1 NMatT=0.
 ***** Axes restored to original set *****
 -------------------------------------------------------------------
 Center     Atomic                   Forces (Hartrees/Bohr)
 Number     Number              X              Y              Z
 -------------------------------------------------------------------
      1        6          -0.000066785   -0.000134716    0.000232318
      2        1          -0.000004855    0.000058980   -0.000038207
      3        1          -0.000004935    0.000003576   -0.000070316
      4        1           0.000054656    0.000028161   -0.000047856
      5        6           0.000026825    0.000043355   -0.000076777
      6        8          -0.000002631   -0.000031324   -0.000017608
      7        8          -0.000002275    0.000031968    0.000018446
 -------------------------------------------------------------------
 Cartesian Forces:  Max     0.000232318 RMS     0.000070290

 GradGradGradGradGradGradGradGradGradGradGradGradGradGradGradGradGradGrad
 Berny optimization.
 Using GEDIIS/GDIIS optimizer.
 FormGI is forming the generalized inverse of G from B-inverse, IUseBI=4.
 Internal  Forces:  Max     0.000090121 RMS     0.000040361
 Search for a local minimum.
 Step number   7 out of a maximum of  100
 All quantities printed in internal units (Hartrees-Bohrs-Radians)
 Mixed Optimization -- En-DIIS/RFO-DIIS
 Swapping is turned off.
 Update second derivatives using D2CorX and points    1    3    2    4    5
                                                      6    7
 DE= -1.87D-06 DEPred=-1.65D-06 R= 1.13D+00
 TightC=F SS=  1.41D+00  RLast= 3.81D-03 DXNew= 4.2426D-01 1.1437D-02
 Trust test= 1.13D+00 RLast= 3.81D-03 DXMaxT set to 2.52D-01
 ITU=  1  1  0  0 -1  1  0
     Eigenvalues ---    0.00237   0.06561   0.07199   0.08425   0.12878
     Eigenvalues ---    0.16000   0.16304   0.22302   0.25000   0.30924
     Eigenvalues ---    0.35837   0.37230   0.37280   0.66833   0.74691
 En-DIIS/RFO-DIIS IScMMF=        0 using points:     7    6
 RFO step:  Lambda=-7.71084344D-08.
 DidBck=F Rises=F RFO-DIIS coefs:    1.15479   -0.15479
 Iteration  1 RMS(Cart)=  0.00019377 RMS(Int)=  0.00000011
 Iteration  2 RMS(Cart)=  0.00000007 RMS(Int)=  0.00000009
 Variable       Old X    -DE/DX   Delta X   Delta X   Delta X     New X
                                 (Linear)    (Quad)   (Total)
    R1        2.08826  -0.00006  -0.00011  -0.00009  -0.00020   2.08806
    R2        2.08829  -0.00006  -0.00011  -0.00009  -0.00020   2.08809
    R3        2.09460  -0.00006  -0.00010  -0.00009  -0.00019   2.09442
    R4        2.97947   0.00009  -0.00008   0.00045   0.00037   2.97984
    R5        2.37387  -0.00003  -0.00010   0.00002  -0.00008   2.37379
    R6        2.37386  -0.00003  -0.00010   0.00002  -0.00008   2.37378
    A1        1.92278   0.00005   0.00014   0.00031   0.00044   1.92323
    A2        1.87032   0.00005   0.00018   0.00016   0.00033   1.87065
    A3        1.94476  -0.00003  -0.00012  -0.00011  -0.00024   1.94452
    A4        1.87006   0.00005   0.00018   0.00015   0.00033   1.87039
    A5        1.94457  -0.00003  -0.00012  -0.00012  -0.00024   1.94432
    A6        1.90826  -0.00007  -0.00023  -0.00036  -0.00059   1.90767
    A7        2.00802   0.00001   0.00009  -0.00006   0.00004   2.00806
    A8        2.00816   0.00001   0.00010  -0.00005   0.00004   2.00820
    A9        2.26666  -0.00002  -0.00018   0.00010  -0.00008   2.26658
    D1       -2.66295  -0.00001   0.00010  -0.00030  -0.00020  -2.66315
    D2        0.50375   0.00000  -0.00012  -0.00003  -0.00015   0.50360
    D3       -0.50771   0.00000   0.00010  -0.00008   0.00003  -0.50768
    D4        2.65900   0.00001  -0.00012   0.00019   0.00008   2.65907
    D5        1.55605   0.00000   0.00010  -0.00019  -0.00009   1.55595
    D6       -1.56043   0.00000  -0.00012   0.00007  -0.00004  -1.56048
         Item               Value     Threshold  Converged?
 Maximum Force            0.000090     0.000002     NO 
 RMS     Force            0.000040     0.000001     NO 
 Maximum Displacement     0.000462     0.000006     NO 
 RMS     Displacement     0.000194     0.000004     NO 
 Predicted change in Energy=-9.240780D-08
 GradGradGradGradGradGradGradGradGradGradGradGradGradGradGradGradGradGrad

                          Input orientation:                          
 ---------------------------------------------------------------------
 Center     Atomic      Atomic             Coordinates (Angstroms)
 Number     Number       Type             X           Y           Z
 ---------------------------------------------------------------------
      1          6           0        0.069430    1.205750   -0.020952
      2          1           0        0.397634    0.150768   -0.006006
      3          1           0        0.397747    1.720416    0.900069
      4          1           0       -1.038880    1.203894   -0.017259
      5          6           0        0.585100    1.950854   -1.311459
      6          8           0        0.743338    3.190318   -1.182565
      7          8           0        0.747765    1.218867   -2.319252
 ---------------------------------------------------------------------
                    Distance matrix (angstroms):
                    1          2          3          4          5
     1  C    0.000000
     2  H    1.104956   0.000000
     3  H    1.104967   1.812393   0.000000
     4  H    1.108317   1.781228   1.781063   0.000000
     5  C    1.576865   2.231515   2.231380   2.206855   0.000000
     6  O    2.396248   3.277601   2.572432   2.912064   1.256155
     7  O    2.396350   2.571873   3.276903   2.914017   1.256150
                    6          7
     6  O    0.000000
     7  O    2.275675   0.000000
 Stoichiometry    C2H3O2(1-)
 Framework group  C1[X(C2H3O2)]
 Deg. of freedom    15
 Full point group                 C1      NOp   1
 Largest Abelian subgroup         C1      NOp   1
 Largest concise Abelian subgroup C1      NOp   1
                         Standard orientation:                         
 ---------------------------------------------------------------------
 Center     Atomic      Atomic             Coordinates (Angstroms)
 Number     Number       Type             X           Y           Z
 ---------------------------------------------------------------------
      1          6           0       -1.355839    0.000319   -0.005638
      2          1           0       -1.760511    0.907552   -0.489474
      3          1           0       -1.760703   -0.904837   -0.493215
      4          1           0       -1.719032   -0.001973    1.041479
      5          6           0        0.221019   -0.000011   -0.010382
      6          8           0        0.752756   -1.138000    0.002332
      7          8           0        0.753390    1.137676    0.002334
 ---------------------------------------------------------------------
 Rotational constants (GHZ):     11.3178801      9.8824801      5.4559452
 Standard basis: CC-pVDZ (5D, 7F)
 There are    75 symmetry adapted cartesian basis functions of A   symmetry.
 There are    71 symmetry adapted basis functions of A   symmetry.
    71 basis functions,   153 primitive gaussians,    75 cartesian basis functions
    16 alpha electrons       16 beta electrons
       nuclear repulsion energy       111.1691422317 Hartrees.
 NAtoms=    7 NActive=    7 NUniq=    7 SFac= 1.00D+00 NAtFMM=   60 NAOKFM=F Big=F
 Integral buffers will be    131072 words long.
 Raffenetti 2 integral format.
 Two-electron integral symmetry is turned on.
 One-electron integrals computed using PRISM.
 NBasis=    71 RedAO= T EigKep=  6.55D-03  NBF=    71
 NBsUse=    71 1.00D-06 EigRej= -1.00D+00 NBFU=    71
 Initial guess from the checkpoint file:  "oac.chk"
 B after Tr=     0.000000    0.000000    0.000000
         Rot=    1.000000   -0.000004   -0.000013    0.000005 Ang=   0.00 deg.
 Keep R1 ints in memory in canonical form, NReq=4198417.
 Requested convergence on RMS density matrix=1.00D-08 within 128 cycles.
 Requested convergence on MAX density matrix=1.00D-06.
 Requested convergence on             energy=1.00D-06.
 No special actions if energy rises.
 SCF Done:  E(RB3LYP) =  -228.513213799     A.U. after    7 cycles
            NFock=  7  Conv=0.74D-08     -V/T= 2.0057
 Calling FoFJK, ICntrl=      2127 FMM=F ISym2X=0 I1Cent= 0 IOpClX= 0 NMat=1 NMatS=1 NMatT=0.
 ***** Axes restored to original set *****
 -------------------------------------------------------------------
 Center     Atomic                   Forces (Hartrees/Bohr)
 Number     Number              X              Y              Z
 -------------------------------------------------------------------
      1        6          -0.000024038   -0.000035155    0.000059181
      2        1           0.000001839    0.000005847   -0.000010436
      3        1           0.000001775    0.000006165   -0.000010240
      4        1           0.000002463    0.000006185   -0.000009707
      5        6           0.000022545    0.000016999   -0.000030016
      6        8          -0.000002578    0.000016837    0.000010533
      7        8          -0.000002006   -0.000016876   -0.000009316
 -------------------------------------------------------------------
 Cartesian Forces:  Max     0.000059181 RMS     0.000019787

 GradGradGradGradGradGradGradGradGradGradGradGradGradGradGradGradGradGrad
 Berny optimization.
 Using GEDIIS/GDIIS optimizer.
 FormGI is forming the generalized inverse of G from B-inverse, IUseBI=4.
 Internal  Forces:  Max     0.000037470 RMS     0.000012312
 Search for a local minimum.
 Step number   8 out of a maximum of  100
 All quantities printed in internal units (Hartrees-Bohrs-Radians)
 Mixed Optimization -- En-DIIS/RFO-DIIS
 Swapping is turned off.
 Update second derivatives using D2CorX and points    1    3    2    4    5
                                                      6    7    8
 DE= -1.12D-07 DEPred=-9.24D-08 R= 1.21D+00
 Trust test= 1.21D+00 RLast= 1.11D-03 DXMaxT set to 2.52D-01
 ITU=  0  1  1  0  0 -1  1  0
     Eigenvalues ---    0.00237   0.06504   0.07203   0.08339   0.10729
     Eigenvalues ---    0.16000   0.16287   0.20733   0.25000   0.30910
     Eigenvalues ---    0.36529   0.37230   0.37294   0.66833   0.78329
 En-DIIS/RFO-DIIS IScMMF=        0 using points:     8    7    6
 RFO step:  Lambda=-6.98446793D-09.
 DidBck=F Rises=F RFO-DIIS coefs:    1.45589   -0.52484    0.06895
 Iteration  1 RMS(Cart)=  0.00007015 RMS(Int)=  0.00000002
[...]
                      A                      A                      A
 Frequencies --     39.7544               417.5913               604.1190
 Red. masses --      1.0858                 2.8280                 2.1294
 Frc consts  --      0.0010                 0.2906                 0.4579
 IR Inten    --      0.6599                 0.7698                 4.1825
  Atom  AN      X      Y      Z        X      Y      Z        X      Y      Z
     1   6     0.00   0.00   0.01    -0.01   0.18   0.00     0.00   0.00  -0.04
     2   1     0.00   0.00   0.53     0.53   0.36   0.00     0.00   0.00   0.35
     3   1     0.05   0.50  -0.32    -0.28   0.38  -0.01    -0.60   0.06   0.18
     4   1    -0.05  -0.50  -0.32    -0.28   0.38   0.01     0.60  -0.06   0.18
     5   6     0.00   0.00   0.02    -0.01  -0.14   0.00     0.00   0.00  -0.27
     6   8     0.00   0.00   0.04     0.21  -0.05   0.00     0.00   0.00   0.10
     7   8     0.00   0.00  -0.06    -0.19  -0.04   0.00     0.00   0.00   0.09
                      4                      5                      6
                      A                      A                      A
 Frequencies --    611.4828               855.6113               963.7589
 Red. masses --      5.1765                 7.9246                 1.5031
 Frc consts  --      1.1404                 3.4181                 0.8226
 IR Inten    --      3.3555                79.4928                 7.2178
  Atom  AN      X      Y      Z        X      Y      Z        X      Y      Z
     1   6     0.43   0.00   0.00     0.28   0.00   0.00     0.00   0.18   0.00
     2   1     0.48   0.01   0.00     0.38   0.01   0.00    -0.77  -0.10   0.00
     3   1     0.47  -0.02   0.00     0.40  -0.05   0.00     0.37  -0.20   0.07
     4   1     0.47  -0.02   0.00     0.40  -0.05   0.00     0.37  -0.20  -0.07
     5   6     0.03  -0.01   0.00    -0.45   0.02   0.00     0.01  -0.02   0.00
     6   8    -0.21  -0.15   0.00     0.04   0.35   0.00     0.05  -0.04   0.00
     7   8    -0.23   0.15   0.00     0.01  -0.36   0.00    -0.05  -0.04   0.00
                      7                      8                      9
                      A                      A                      A
 Frequencies --   1005.1939              1280.5825              1359.7423
 Red. masses --      2.0978                 1.3014                 8.5821
 Frc consts  --      1.2488                 1.2575                 9.3488
 IR Inten    --      3.3839                 1.1548               295.2611
  Atom  AN      X      Y      Z        X      Y      Z        X      Y      Z
     1   6     0.00   0.00   0.17     0.15   0.00   0.00    -0.11  -0.03   0.00
     2   1     0.00   0.00  -0.31    -0.52  -0.22   0.00     0.18   0.10   0.00
     3   1     0.61   0.05  -0.15    -0.53   0.12   0.19     0.30   0.13  -0.27
     4   1    -0.61  -0.05  -0.15    -0.53   0.12  -0.19     0.30   0.13   0.27
     5   6     0.00   0.00  -0.25     0.04   0.00   0.00     0.57  -0.03   0.00
     6   8     0.00   0.00   0.05    -0.02   0.03   0.00    -0.18   0.30   0.00
     7   8     0.00   0.00   0.05    -0.02  -0.03   0.00    -0.21  -0.29   0.00
                     10                     11                     12
                      A                      A                      A
 Frequencies --   1429.5450              1441.1376              1743.8185
 Red. masses --      1.0750                 1.0539                10.7512
 Frc consts  --      1.2943                 1.2896                19.2624
 IR Inten    --      9.7069                 0.2637               416.0506
  Atom  AN      X      Y      Z        X      Y      Z        X      Y      Z
     1   6    -0.01   0.06   0.00     0.00   0.00  -0.06     0.00  -0.04   0.00
     2   1     0.32   0.15   0.00     0.00   0.00   0.74     0.29   0.12   0.00
     3   1    -0.15  -0.51   0.39     0.29  -0.37   0.06    -0.15  -0.08   0.12
     4   1    -0.15  -0.51  -0.39    -0.29   0.37   0.06    -0.15  -0.08  -0.12
     5   6     0.03  -0.02   0.00     0.00   0.00  -0.02     0.04   0.79   0.00
     6   8    -0.01   0.02   0.00     0.00   0.00   0.00     0.11  -0.28   0.00
     7   8     0.00   0.00   0.00     0.00   0.00   0.00    -0.13  -0.28   0.00
                     13                     14                     15
                      A                      A                      A
 Frequencies --   2976.6525              3041.1461              3065.0735
 Red. masses --      1.0327                 1.0995                 1.1042
 Frc consts  --      5.3911                 5.9912                 6.1122
 IR Inten    --     51.5680                79.3249                95.7690
  Atom  AN      X      Y      Z        X      Y      Z        X      Y      Z
     1   6    -0.05  -0.01   0.00     0.00   0.00   0.09     0.00  -0.09   0.00
     2   1     0.16  -0.50   0.00     0.00   0.00   0.02    -0.28   0.80   0.00
     3   1     0.19   0.29   0.49    -0.25  -0.35  -0.56     0.13   0.16   0.30
     4   1     0.19   0.29  -0.49     0.25   0.35  -0.56     0.13   0.16  -0.30
     5   6     0.00   0.00   0.00     0.00   0.00   0.00     0.00  -0.01   0.00
     6   8     0.00   0.00   0.00     0.00   0.00   0.00     0.00   0.00   0.00
     7   8     0.00   0.00   0.00     0.00   0.00   0.00     0.00   0.00   0.00

 -------------------
 - Thermochemistry -
 -------------------
 Temperature   298.150 Kelvin.  Pressure   1.00000 Atm.
 Atom     1 has atomic number  6 and mass  12.00000
 Atom     2 has atomic number  1 and mass   1.00783
 Atom     3 has atomic number  1 and mass   1.00783
 Atom     4 has atomic number  1 and mass   1.00783
 Atom     5 has atomic number  6 and mass  12.00000
 Atom     6 has atomic number  8 and mass  15.99491
 Atom     7 has atomic number  8 and mass  15.99491
 Molecular mass:    59.01330 amu.
 Principal axes and moments of inertia in atomic units:
                           1         2         3
     Eigenvalues --   159.34278 182.72194 330.79981
           X            0.99949  -0.03180   0.00000
           Y            0.03180   0.99949   0.00000
           Z            0.00000   0.00000   1.00000
 This molecule is an asymmetric top.
 Rotational symmetry number  1.
 Rotational temperatures (Kelvin)      0.54357     0.47402     0.26183
 Rotational constants (GHZ):          11.32616     9.87698     5.45569
 Zero-point vibrational energy     124622.2 (Joules/Mol)
                                   29.78543 (Kcal/Mol)
 Warning -- explicit consideration of   4 degrees of freedom as
           vibrations may cause significant error
 Vibrational temperatures:     57.20   600.82   869.19   879.79  1231.03
          (Kelvin)           1386.63  1446.25  1842.47  1956.36  2056.79
                             2073.47  2508.96  4282.73  4375.53  4409.95
 
 Zero-point correction=                           0.047466 (Hartree/Particle)
 Thermal correction to Energy=                    0.051937
 Thermal correction to Enthalpy=                  0.052881
 Thermal correction to Gibbs Free Energy=         0.019896
 Sum of electronic and zero-point Energies=           -228.465783
 Sum of electronic and thermal Energies=              -228.461312
 Sum of electronic and thermal Enthalpies=            -228.460367
 Sum of electronic and thermal Free Energies=         -228.493353
 
                     E (Thermal)             CV                S
                      KCal/Mol        Cal/Mol-Kelvin    Cal/Mol-Kelvin
 Total                   32.591             13.257             69.423
 Electronic               0.000              0.000              0.000
 Translational            0.889              2.981             38.146
 Rotational               0.889              2.981             23.781
 Vibrational             30.814              7.296              7.497
 Vibration     1          0.594              1.981              5.271
 Vibration     2          0.781              1.432              0.900
 Vibration     3          0.963              1.023              0.443
 Vibration     4          0.971              1.008              0.430
                       Q            Log10(Q)             Ln(Q)
 Total Bot       0.705544D-09         -9.151476        -21.072053
 Total V=0       0.480140D+13         12.681367         29.199928
 Vib (Bot)       0.112708D-20        -20.948047        -48.234660
 Vib (Bot)    1  0.520464D+01          0.716391          1.649551
 Vib (Bot)    2  0.421254D+00         -0.375456         -0.864519
 Vib (Bot)    3  0.246122D+00         -0.608850         -1.401929
 Vib (Bot)    4  0.241305D+00         -0.617434         -1.421695
 Vib (V=0)       0.767003D+01          0.884797          2.037320
 Vib (V=0)    1  0.572861D+01          0.758049          1.745472
 Vib (V=0)    2  0.115380D+01          0.062131          0.143061
 Vib (V=0)    3  0.105729D+01          0.024196          0.055712
 Vib (V=0)    4  0.105518D+01          0.023328          0.053714
 Electronic      0.100000D+01          0.000000          0.000000
 Translational   0.178189D+08          7.250880         16.695768
 Rotational      0.351310D+05          4.545691         10.466839
 ***** Axes restored to original set *****
 -------------------------------------------------------------------
 Center     Atomic                   Forces (Hartrees/Bohr)
 Number     Number              X              Y              Z
 -------------------------------------------------------------------
      1        6           0.000000874   -0.000002687   -0.000001272
      2        1           0.000002976   -0.000002127   -0.000006005
      3        1           0.000000497   -0.000005471    0.000000101
      4        1           0.000000476   -0.000005468    0.000000104
      5        6          -0.000001125    0.000003741    0.000001626
      6        8          -0.000003597    0.000003417    0.000007056
      7        8          -0.000000101    0.000008595   -0.000001610
 -------------------------------------------------------------------
 Cartesian Forces:  Max     0.000008595 RMS     0.000003704
 FormGI is forming the generalized inverse of G from B-inverse, IUseBI=4.

 GradGradGradGradGradGradGradGradGradGradGradGradGradGradGradGradGradGrad
 Berny optimization.
 Internal  Forces:  Max     0.000000040 RMS     0.000000013
 Search for a local minimum.
 Step number   1 out of a maximum of    2
 All quantities printed in internal units (Hartrees-Bohrs-Radians)
 Second derivative matrix not updated -- analytic derivatives used.
 ITU=  0
     Eigenvalues ---    0.00009   0.05093   0.05482   0.07862   0.10268
     Eigenvalues ---    0.10789   0.12473   0.16895   0.23102   0.32186
     Eigenvalues ---    0.32514   0.33183   0.33515   0.59363   0.74771
 Angle between quadratic step and forces=  85.52 degrees.
 Linear search not attempted -- first point.
 Iteration  1 RMS(Cart)=  0.00001000 RMS(Int)=  0.00000000
 Iteration  2 RMS(Cart)=  0.00000000 RMS(Int)=  0.00000000
 Variable       Old X    -DE/DX   Delta X   Delta X   Delta X     New X
                                 (Linear)    (Quad)   (Total)
    R1        2.08675   0.00000   0.00000   0.00000   0.00000   2.08675
    R2        2.09184   0.00000   0.00000   0.00000   0.00000   2.09185
    R3        2.09185   0.00000   0.00000   0.00000   0.00000   2.09185
    R4        2.97997   0.00000   0.00000   0.00000   0.00000   2.97997
    R5        2.37458   0.00000   0.00000   0.00000   0.00000   2.37458
    R6        2.37283   0.00000   0.00000   0.00000   0.00000   2.37283
    A1        1.90667   0.00000   0.00000   0.00000   0.00000   1.90667
    A2        1.90667   0.00000   0.00000   0.00000   0.00000   1.90667
    A3        1.95899   0.00000   0.00000   0.00000   0.00000   1.95899
    A4        1.85166   0.00000   0.00000   0.00000   0.00000   1.85166
    A5        1.91835   0.00000   0.00000   0.00000   0.00000   1.91835
    A6        1.91835   0.00000   0.00000   0.00000   0.00000   1.91835
    A7        1.99649   0.00000   0.00000   0.00000   0.00000   1.99649
    A8        2.01987   0.00000   0.00000   0.00000   0.00000   2.01987
    A9        2.26683   0.00000   0.00000   0.00000   0.00000   2.26683
    D1       -3.14157   0.00000   0.00000  -0.00002  -0.00002  -3.14159
    D2        0.00002   0.00000   0.00000  -0.00002  -0.00002   0.00000
    D3       -1.01585   0.00000   0.00000  -0.00002  -0.00002  -1.01587
    D4        2.12575   0.00000   0.00000  -0.00002  -0.00002   2.12573
    D5        1.01589   0.00000   0.00000  -0.00002  -0.00002   1.01587
    D6       -2.12570   0.00000   0.00000  -0.00002  -0.00002  -2.12572
         Item               Value     Threshold  Converged?
 Maximum Force            0.000000     0.000450     YES
 RMS     Force            0.000000     0.000300     YES
 Maximum Displacement     0.000022     0.001800     YES
 RMS     Displacement     0.000010     0.001200     YES
 Predicted change in Energy=-1.178539D-13
 Optimization completed.
    -- Stationary point found.
                           ----------------------------
                           !   Optimized Parameters   !
                           ! (Angstroms and Degrees)  !
 --------------------------                            --------------------------
 ! Name  Definition              Value          Derivative Info.                !
 --------------------------------------------------------------------------------
 ! R1    R(1,2)                  1.1043         -DE/DX =    0.0                 !
 ! R2    R(1,3)                  1.107          -DE/DX =    0.0                 !
 ! R3    R(1,4)                  1.107          -DE/DX =    0.0                 !
 ! R4    R(1,5)                  1.5769         -DE/DX =    0.0                 !
 ! R5    R(5,6)                  1.2566         -DE/DX =    0.0                 !
 ! R6    R(5,7)                  1.2556         -DE/DX =    0.0                 !
 ! A1    A(2,1,3)              109.2443         -DE/DX =    0.0                 !
 ! A2    A(2,1,4)              109.2442         -DE/DX =    0.0                 !
 ! A3    A(2,1,5)              112.2417         -DE/DX =    0.0                 !
 ! A4    A(3,1,4)              106.0922         -DE/DX =    0.0                 !
 ! A5    A(3,1,5)              109.9136         -DE/DX =    0.0                 !
 ! A6    A(4,1,5)              109.9135         -DE/DX =    0.0                 !
 ! A7    A(1,5,6)              114.3902         -DE/DX =    0.0                 !
 ! A8    A(1,5,7)              115.7301         -DE/DX =    0.0                 !
 ! A9    A(6,5,7)              129.8797         -DE/DX =    0.0                 !
 ! D1    D(2,1,5,6)           -179.9988         -DE/DX =    0.0                 !
 ! D2    D(2,1,5,7)              0.0013         -DE/DX =    0.0                 !
 ! D3    D(3,1,5,6)            -58.2038         -DE/DX =    0.0                 !
 ! D4    D(3,1,5,7)            121.7963         -DE/DX =    0.0                 !
 ! D5    D(4,1,5,6)             58.2064         -DE/DX =    0.0                 !
 ! D6    D(4,1,5,7)           -121.7935         -DE/DX =    0.0                 !
 --------------------------------------------------------------------------------
 GradGradGradGradGradGradGradGradGradGradGradGradGradGradGradGradGradGrad

 1\1\GINC-BARREL\Freq\RB3LYP\CC-pVDZ\C2H3O2(1-)\FLORIAN\05-Nov-2020\0\\
 # b3lyp/cc-pvdz freq geom=allcheck\\initial opt of coordinates\\-1,1\C
 ,0.0573525098,1.1951540931,-0.0317585221\H,0.1970531267,0.1019016992,-
 0.1000864745\H,0.5839143311,1.5749266524,0.864823062\H,-1.0157039727,1
 .4167078048,0.1257761868\C,0.5774079386,1.9448924836,-1.3178961241\O,0
 .4377934073,3.1931933637,-1.2828909411\O,1.0643158163,1.214092512,-2.2
 153910048\\Version=ES64L-G09RevD.01\State=1-A\HF=-228.5132486\RMSD=4.9
 32e-09\RMSF=3.704e-06\ZeroPoint=0.0474661\Thermal=0.051937\Dipole=-0.3
 767258,-0.5292719,0.9287065\DipoleDeriv=0.1217015,-0.1150881,0.1858177
 ,-0.1130218,0.097735,0.2657022,0.1853741,0.2701731,-0.262899,0.0014676
 ,0.0341315,-0.0023626,0.0062744,-0.2850393,0.0482447,0.0036017,-0.0120
 503,-0.0014637,-0.0239084,-0.0330172,-0.1216685,-0.0524858,-0.0184708,
 -0.0938648,-0.0869407,-0.0441004,-0.1947554,-0.2469538,0.0240034,0.084
 1806,0.0716735,0.0016321,-0.0059482,0.0434165,0.0053302,0.0081877,0.34
 36456,-0.1350804,-0.6154078,-0.1306342,1.6721747,-0.0653164,-0.6163598
 ,-0.0556936,1.392002,-0.5556839,0.0367215,0.1137518,0.0773625,-1.52124
 68,0.0512454,0.1050523,0.1392147,-0.7566845,-0.6402685,0.1883293,0.355
 6888,0.1408314,-0.9467848,-0.2000629,0.3658559,-0.3028738,-1.1843871\P
 olar=23.9457979,-1.1168691,33.8949391,-4.5551217,-0.1861801,31.6303885
 \PG=C01 [X(C2H3O2)]\NImag=0\\0.48898706,-0.03317015,0.53258277,0.02874
 207,0.06460506,0.42294677,-0.04983485,0.03523416,0.00137717,0.04923118
 ,0.03392426,-0.29424214,-0.02022127,-0.03823634,0.32079803,0.00165755,
 -0.02305697,-0.04436577,-0.00201357,0.02361392,0.04382193,-0.09730810,
 -0.04293302,-0.09950378,0.00168521,0.00120848,0.00467913,0.10783147,-0
 .04221624,-0.07479512,-0.07146208,-0.01608180,-0.00877844,-0.02350439,
 0.04862653,0.07731409,-0.10576431,-0.07273905,-0.20516987,-0.00017513,
 0.00049051,-0.00167291,0.10991463,0.08042090,0.22066805,-0.28308946,0.
 05161525,0.03031986,-0.00268302,-0.00014809,0.00008568,-0.01566429,0.0
 0319348,0.00234320,0.30650257,0.05065136,-0.05443973,-0.00722495,0.029
 59623,-0.00435197,-0.00265530,-0.01111676,0.00166742,0.00170642,-0.058
 05124,0.05426715,0.03663346,-0.00648216,-0.03974332,0.00227378,0.00030
 557,-0.00173127,-0.02538350,0.00557550,0.00277654,-0.03425481,0.007795
 40,0.04504339,-0.08313736,-0.00950293,0.00271894,0.00004908,0.00757629
 ,-0.00763649,0.00623292,0.00978306,-0.01514532,-0.00905262,-0.01289417
 ,0.02618196,0.32622395,-0.00817608,-0.06994943,0.01494196,-0.00837548,
 -0.01767094,0.02132671,0.00293259,0.00292924,-0.01666086,0.00877013,0.
 00141317,-0.00917730,-0.13597784,0.86679694,0.00243486,0.01781383,-0.0
 9190392,-0.00422141,-0.01320026,0.00923332,0.00994404,0.00859672,-0.01
 659336,-0.00207889,-0.00237092,0.00020824,-0.15516411,0.16039739,0.542
 61379,0.01579589,-0.00901724,0.00640680,0.00166763,-0.00323120,0.00323
 755,-0.00036722,-0.00170858,0.00285729,0.00341419,0.00166114,-0.004065
 21,-0.08957283,0.04234476,0.01089621,0.04926936,-0.00220972,-0.0469233
 5,0.01865039,-0.00273872,-0.00245405,0.00706189,0.00159607,0.00031820,
 0.00298804,-0.00282129,0.00017752,0.00008975,0.04505713,-0.53867103,0.
 00057411,-0.06664793,0.64975009,0.00494975,0.03338492,0.00000411,0.003
 13202,0.00812788,-0.00567512,-0.00087249,-0.00046664,0.00404045,-0.000
 08323,0.00099544,0.00039948,0.01031559,0.00644514,-0.10405935,-0.02854
 503,0.01149715,0.08881625,0.00858682,0.00777394,0.02993894,-0.00011524
 ,-0.00109339,-0.00000985,-0.00240999,-0.00159646,0.00596965,0.00057263
 ,0.00015343,-0.00138567,-0.15074313,0.09848192,0.13818929,0.01979297,0
 .02776447,0.01110338,0.12431594,0.00119657,0.00776699,0.00071088,0.000
 60195,0.00669951,-0.00278586,-0.00031389,0.00134461,0.00379404,-0.0025
 5824,0.00126644,0.00189325,0.09595847,-0.24484795,-0.17181087,0.036599
 05,-0.06219737,-0.05998389,-0.13148392,0.28996777,0.03134662,-0.013525
 63,-0.04176799,-0.00037287,0.00088366,0.00038983,0.00122196,0.00083998
 ,-0.00404890,0.00366819,0.00175391,-0.00695305,0.13872944,-0.17727304,
 -0.33949872,0.00921239,-0.04086133,0.01647418,-0.18380573,0.22818245,0
 .37540466\\-0.00000087,0.00000269,0.00000127,-0.00000298,0.00000213,0.
 00000601,-0.00000050,0.00000547,-0.00000010,-0.00000048,0.00000547,-0.
 00000010,0.00000112,-0.00000374,-0.00000163,0.00000360,-0.00000342,-0.
 00000706,0.00000010,-0.00000859,0.00000161\\\@


 NO MATTER HOW THIN YOU SLICE IT, IT'S STILL BALONEY

                                   -- ALFRED E. SMITH
 Job cpu time:       0 days  0 hours  0 minutes 34.2 seconds.
 File lengths (MBytes):  RWF=      8 Int=      0 D2E=      0 Chk=      2 Scr=      1
 Normal termination of Gaussian 09 at Thu Nov  5 15:02:13 2020.
