 Entering Gaussian System, Link 0=g09
 Initial command:
 /opt/g09/l1.exe "/scratch/data/florian/gaussian_scratch/Gau-31756.inp" -scrdir="/scratch/data/florian/gaussian_scratch/"
 Entering Link 1 = /opt/g09/l1.exe PID=     31758.
  
 Copyright (c) 1988,1990,1992,1993,1995,1998,2003,2009,2013,
            Gaussian, Inc.  All Rights Reserved.
  
 This is part of the Gaussian(R) 09 program.  It is based on
 the Gaussian(R) 03 system (copyright 2003, Gaussian, Inc.),
 the Gaussian(R) 98 system (copyright 1998, Gaussian, Inc.),
 the Gaussian(R) 94 system (copyright 1995, Gaussian, Inc.),
 the Gaussian 92(TM) system (copyright 1992, Gaussian, Inc.),
 the Gaussian 90(TM) system (copyright 1990, Gaussian, Inc.),
 the Gaussian 88(TM) system (copyright 1988, Gaussian, Inc.),
 the Gaussian 86(TM) system (copyright 1986, Carnegie Mellon
 University), and the Gaussian 82(TM) system (copyright 1983,
 Carnegie Mellon University). Gaussian is a federally registered
 trademark of Gaussian, Inc.
  
 This software contains proprietary and confidential information,
 including trade secrets, belonging to Gaussian, Inc.
  
 This software is provided under written license and may be
 used, copied, transmitted, or stored only in accord with that
 written license.
  
 The following legend is applicable only to US Government
 contracts under FAR:
  
                    RESTRICTED RIGHTS LEGEND
  
 Use, reproduction and disclosure by the US Government is
 subject to restrictions as set forth in subparagraphs (a)
 and (c) of the Commercial Computer Software - Restricted
 Rights clause in FAR 52.227-19.
  
 Gaussian, Inc.
 340 Quinnipiac St., Bldg. 40, Wallingford CT 06492
  
  
 ---------------------------------------------------------------
 Warning -- This program may not be used in any manner that
 competes with the business of Gaussian, Inc. or will provide
 assistance to any competitor of Gaussian, Inc.  The licensee
 of this program is prohibited from giving any competitor of
 Gaussian, Inc. access to this program.  By using this program,
 the user acknowledges that Gaussian, Inc. is engaged in the
 business of creating and licensing software in the field of
 computational chemistry and represents and warrants to the
 licensee that it is not a competitor of Gaussian, Inc. and that
 it will not use this program in any manner prohibited above.
 ---------------------------------------------------------------
  

 Cite this work as:
 Gaussian 09, Revision D.01,
 M. J. Frisch, G. W. Trucks, H. B. Schlegel, G. E. Scuseria, 
 M. A. Robb, J. R. Cheeseman, G. Scalmani, V. Barone, B. Mennucci, 
 G. A. Petersson, H. Nakatsuji, M. Caricato, X. Li, H. P. Hratchian, 
 A. F. Izmaylov, J. Bloino, G. Zheng, J. L. Sonnenberg, M. Hada, 
 M. Ehara, K. Toyota, R. Fukuda, J. Hasegawa, M. Ishida, T. Nakajima, 
 Y. Honda, O. Kitao, H. Nakai, T. Vreven, J. A. Montgomery, Jr., 
 J. E. Peralta, F. Ogliaro, M. Bearpark, J. J. Heyd, E. Brothers, 
 K. N. Kudin, V. N. Staroverov, T. Keith, R. Kobayashi, J. Normand, 
 K. Raghavachari, A. Rendell, J. C. Burant, S. S. Iyengar, J. Tomasi, 
 M. Cossi, N. Rega, J. M. Millam, M. Klene, J. E. Knox, J. B. Cross, 
 V. Bakken, C. Adamo, J. Jaramillo, R. Gomperts, R. E. Stratmann, 
 O. Yazyev, A. J. Austin, R. Cammi, C. Pomelli, J. W. Ochterski, 
 R. L. Martin, K. Morokuma, V. G. Zakrzewski, G. A. Voth, 
 P. Salvador, J. J. Dannenberg, S. Dapprich, A. D. Daniels, 
 O. Farkas, J. B. Foresman, J. V. Ortiz, J. Cioslowski, 
 and D. J. Fox, Gaussian, Inc., Wallingford CT, 2013.
 
 ******************************************
 Gaussian 09:  ES64L-G09RevD.01 24-Apr-2013
                 3-Feb-2021 
 ******************************************
 %CHK=im21_b3lyp_opt
 %MEM=14000MB
 %NPROCSHARED=4
 Will use up to    4 processors via shared memory.
 -------------------------------------
 #b3lyp/aug-cc-pvdz GEOM=ALLCHECK FREQ
 -------------------------------------
 1/10=4,29=7,30=1,38=1/1,3;
 2/12=2,40=1/2;
 3/5=16,7=10,11=2,14=-4,16=1,25=1,30=1,71=2,74=-5,140=1/1,2,3;
 4//1;
 5/5=2,38=5,98=1/2;
 8/6=4,10=90,11=11/1;
 11/6=1,8=1,9=11,15=111,16=1/1,2,10;
 10/6=1/2;
 6/7=2,8=2,9=2,10=2,18=1,28=1/1;
 7/8=1,10=1,25=1/1,2,3,16;
 1/10=4,30=1/3;
 99//99;
 Structure from the checkpoint file:  "im21_b3lyp_opt.chk"
 -----------------------------------
 IM21 OPTIMIZED AT B3LYP/AUG-CC-PVDZ
 -----------------------------------
 Charge =  1 Multiplicity = 1
 Redundant internal coordinates found in file.
 C,0,0.5282216671,-0.3620629377,3.029529423
 H,0,0.1408434058,-1.1406731129,3.695494772
 H,0,0.6230743506,0.5772349994,3.5811474239
 H,0,1.5073825933,-0.6570859788,2.6370836736
 N,0,-0.4062641816,-0.1657490773,1.9126841086
 C,0,-1.0418170848,0.9760303343,1.6140554964
 H,0,-0.9454658278,1.9028781351,2.1622204419
 N,0,-1.807862954,0.7765338037,0.5338026845
 C,0,-0.7775594768,-1.128222947,0.9933128375
 H,0,-0.3924663472,-2.1400755954,1.0279932668
 C,0,-1.6557524943,-0.5371606259,0.1296607345
 H,0,-2.1785231997,-0.9397266887,-0.7294095806
 C,0,-2.6833709717,1.7694860443,-0.1427434214
 H,0,-2.342893958,1.8255526646,-1.1840192882
 H,0,-3.6954918256,1.3465272032,-0.1366470347
 C,0,-2.6614962759,3.1412814033,0.5129014685
 H,0,-3.3320604792,3.7997001654,-0.051952498
 H,0,-1.6613742618,3.5942816158,0.4892713537
 H,0,-3.0281226786,3.1102505945,1.547614138
 Recover connectivity data from disk.

 GradGradGradGradGradGradGradGradGradGradGradGradGradGradGradGradGradGrad
 Berny optimization.
 Initialization pass.
                           ----------------------------
                           !    Initial Parameters    !
                           ! (Angstroms and Degrees)  !
 --------------------------                            --------------------------
 ! Name  Definition              Value          Derivative Info.                !
 --------------------------------------------------------------------------------
 ! R1    R(1,2)                  1.0954         calculate D2E/DX2 analytically  !
 ! R2    R(1,3)                  1.0934         calculate D2E/DX2 analytically  !
 ! R3    R(1,4)                  1.0954         calculate D2E/DX2 analytically  !
 ! R4    R(1,5)                  1.4694         calculate D2E/DX2 analytically  !
 ! R5    R(5,6)                  1.3404         calculate D2E/DX2 analytically  !
 ! R6    R(5,9)                  1.3818         calculate D2E/DX2 analytically  !
 ! R7    R(6,7)                  1.0811         calculate D2E/DX2 analytically  !
 ! R8    R(6,8)                  1.3392         calculate D2E/DX2 analytically  !
 ! R9    R(8,11)                 1.3828         calculate D2E/DX2 analytically  !
 ! R10   R(8,13)                 1.4867         calculate D2E/DX2 analytically  !
 ! R11   R(9,10)                 1.0832         calculate D2E/DX2 analytically  !
 ! R12   R(9,11)                 1.3662         calculate D2E/DX2 analytically  !
 ! R13   R(11,12)                1.0832         calculate D2E/DX2 analytically  !
 ! R14   R(13,14)                1.097          calculate D2E/DX2 analytically  !
 ! R15   R(13,15)                1.097          calculate D2E/DX2 analytically  !
 ! R16   R(13,16)                1.5206         calculate D2E/DX2 analytically  !
 ! R17   R(16,17)                1.0965         calculate D2E/DX2 analytically  !
 ! R18   R(16,18)                1.0982         calculate D2E/DX2 analytically  !
 ! R19   R(16,19)                1.0982         calculate D2E/DX2 analytically  !
 ! A1    A(2,1,3)              109.5476         calculate D2E/DX2 analytically  !
 ! A2    A(2,1,4)              110.0302         calculate D2E/DX2 analytically  !
 ! A3    A(2,1,5)              109.4005         calculate D2E/DX2 analytically  !
 ! A4    A(3,1,4)              109.5469         calculate D2E/DX2 analytically  !
 ! A5    A(3,1,5)              108.8957         calculate D2E/DX2 analytically  !
 ! A6    A(4,1,5)              109.4003         calculate D2E/DX2 analytically  !
 ! A7    A(1,5,6)              125.7795         calculate D2E/DX2 analytically  !
 ! A8    A(1,5,9)              125.6985         calculate D2E/DX2 analytically  !
 ! A9    A(6,5,9)              108.522          calculate D2E/DX2 analytically  !
 ! A10   A(5,6,7)              125.102          calculate D2E/DX2 analytically  !
 ! A11   A(5,6,8)              108.9064         calculate D2E/DX2 analytically  !
 ! A12   A(7,6,8)              125.9916         calculate D2E/DX2 analytically  !
 ! A13   A(6,8,11)             108.3204         calculate D2E/DX2 analytically  !
 ! A14   A(6,8,13)             127.188          calculate D2E/DX2 analytically  !
 ! A15   A(11,8,13)            124.4916         calculate D2E/DX2 analytically  !
 ! A16   A(5,9,10)             122.2632         calculate D2E/DX2 analytically  !
 ! A17   A(5,9,11)             106.9763         calculate D2E/DX2 analytically  !
 ! A18   A(10,9,11)            130.7605         calculate D2E/DX2 analytically  !
 ! A19   A(8,11,9)             107.2749         calculate D2E/DX2 analytically  !
 ! A20   A(8,11,12)            122.1237         calculate D2E/DX2 analytically  !
 ! A21   A(9,11,12)            130.6013         calculate D2E/DX2 analytically  !
 ! A22   A(8,13,14)            106.4588         calculate D2E/DX2 analytically  !
 ! A23   A(8,13,15)            106.4575         calculate D2E/DX2 analytically  !
 ! A24   A(14,13,16)           111.0214         calculate D2E/DX2 analytically  !
 ! A25   A(15,13,16)           111.0218         calculate D2E/DX2 analytically  !
 ! A26   A(13,16,17)           108.1081         calculate D2E/DX2 analytically  !
 ! A27   A(13,16,18)           112.0836         calculate D2E/DX2 analytically  !
 ! A28   A(13,16,19)           112.084          calculate D2E/DX2 analytically  !
 ! A29   A(17,16,18)           107.3478         calculate D2E/DX2 analytically  !
 ! A30   A(17,16,19)           107.3484         calculate D2E/DX2 analytically  !
 ! A31   A(18,16,19)           109.6313         calculate D2E/DX2 analytically  !
 ! A32   L(8,13,16,15,-1)      217.4793         calculate D2E/DX2 analytically  !
 ! A33   L(14,13,15,16,-1)     222.0432         calculate D2E/DX2 analytically  !
 ! A34   L(8,13,16,15,-2)      123.9149         calculate D2E/DX2 analytically  !
 ! A35   L(14,13,15,16,-2)     120.3331         calculate D2E/DX2 analytically  !
 ! D1    D(2,1,5,6)            119.6925         calculate D2E/DX2 analytically  !
 ! D2    D(2,1,5,9)            -60.3059         calculate D2E/DX2 analytically  !
 ! D3    D(3,1,5,6)             -0.0089         calculate D2E/DX2 analytically  !
 ! D4    D(3,1,5,9)            179.9927         calculate D2E/DX2 analytically  !
 ! D5    D(4,1,5,6)           -119.7094         calculate D2E/DX2 analytically  !
 ! D6    D(4,1,5,9)             60.2923         calculate D2E/DX2 analytically  !
 ! D7    D(1,5,6,7)             -0.0012         calculate D2E/DX2 analytically  !
 ! D8    D(1,5,6,8)           -179.9984         calculate D2E/DX2 analytically  !
 ! D9    D(9,5,6,7)            179.9974         calculate D2E/DX2 analytically  !
 ! D10   D(9,5,6,8)              0.0001         calculate D2E/DX2 analytically  !
 ! D11   D(1,5,9,10)            -0.0002         calculate D2E/DX2 analytically  !
 ! D12   D(1,5,9,11)           179.9984         calculate D2E/DX2 analytically  !
 ! D13   D(6,5,9,10)          -179.9988         calculate D2E/DX2 analytically  !
 ! D14   D(6,5,9,11)            -0.0002         calculate D2E/DX2 analytically  !
 ! D15   D(5,6,8,11)             0.0            calculate D2E/DX2 analytically  !
 ! D16   D(5,6,8,13)          -179.9979         calculate D2E/DX2 analytically  !
 ! D17   D(7,6,8,11)          -179.9973         calculate D2E/DX2 analytically  !
 ! D18   D(7,6,8,13)             0.0048         calculate D2E/DX2 analytically  !
 ! D19   D(6,8,11,9)            -0.0001         calculate D2E/DX2 analytically  !
 ! D20   D(6,8,11,12)         -179.9969         calculate D2E/DX2 analytically  !
 ! D21   D(13,8,11,9)          179.9978         calculate D2E/DX2 analytically  !
 ! D22   D(13,8,11,12)           0.0011         calculate D2E/DX2 analytically  !
 ! D23   D(6,8,13,14)          122.39           calculate D2E/DX2 analytically  !
 ! D24   D(6,8,13,15)         -122.4084         calculate D2E/DX2 analytically  !
 ! D25   D(11,8,13,14)         -57.6076         calculate D2E/DX2 analytically  !
 ! D26   D(11,8,13,15)          57.594          calculate D2E/DX2 analytically  !
 ! D27   D(6,8,16,17)          179.9933         calculate D2E/DX2 analytically  !
 ! D28   D(6,8,16,18)           55.0643         calculate D2E/DX2 analytically  !
 ! D29   D(6,8,16,19)          -55.0775         calculate D2E/DX2 analytically  !
 ! D30   D(11,8,16,17)          -0.0147         calculate D2E/DX2 analytically  !
 ! D31   D(11,8,16,18)        -124.9438         calculate D2E/DX2 analytically  !
 ! D32   D(11,8,16,19)         124.9144         calculate D2E/DX2 analytically  !
 ! D33   D(5,9,11,8)             0.0002         calculate D2E/DX2 analytically  !
 ! D34   D(5,9,11,12)          179.9966         calculate D2E/DX2 analytically  !
 ! D35   D(10,9,11,8)          179.9986         calculate D2E/DX2 analytically  !
 ! D36   D(10,9,11,12)          -0.005          calculate D2E/DX2 analytically  !
 ! D37   D(14,13,16,17)         60.1664         calculate D2E/DX2 analytically  !
 ! D38   D(14,13,16,18)        -57.9472         calculate D2E/DX2 analytically  !
 ! D39   D(14,13,16,19)        178.281          calculate D2E/DX2 analytically  !
 ! D40   D(15,13,16,17)        -60.1667         calculate D2E/DX2 analytically  !
 ! D41   D(15,13,16,18)       -178.2803         calculate D2E/DX2 analytically  !
 ! D42   D(15,13,16,19)         57.9479         calculate D2E/DX2 analytically  !
 --------------------------------------------------------------------------------
 Trust Radius=3.00D-01 FncErr=1.00D-07 GrdErr=1.00D-07
 Number of steps in this run=      2 maximum allowed number of steps=      2.
 GradGradGradGradGradGradGradGradGradGradGradGradGradGradGradGradGradGrad

                          Input orientation:                          
 ---------------------------------------------------------------------
 Center     Atomic      Atomic             Coordinates (Angstroms)
 Number     Number       Type             X           Y           Z
 ---------------------------------------------------------------------
      1          6           0        0.528222   -0.362063    3.029529
      2          1           0        0.140843   -1.140673    3.695495
      3          1           0        0.623074    0.577235    3.581147
      4          1           0        1.507383   -0.657086    2.637084
      5          7           0       -0.406264   -0.165749    1.912684
      6          6           0       -1.041817    0.976030    1.614055
      7          1           0       -0.945466    1.902878    2.162220
      8          7           0       -1.807863    0.776534    0.533803
      9          6           0       -0.777559   -1.128223    0.993313
     10          1           0       -0.392466   -2.140076    1.027993
     11          6           0       -1.655752   -0.537161    0.129661
     12          1           0       -2.178523   -0.939727   -0.729410
     13          6           0       -2.683371    1.769486   -0.142743
     14          1           0       -2.342894    1.825553   -1.184019
     15          1           0       -3.695492    1.346527   -0.136647
     16          6           0       -2.661496    3.141281    0.512901
     17          1           0       -3.332060    3.799700   -0.051952
     18          1           0       -1.661374    3.594282    0.489271
     19          1           0       -3.028123    3.110251    1.547614
 ---------------------------------------------------------------------
                    Distance matrix (angstroms):
                    1          2          3          4          5
     1  C    0.000000
     2  H    1.095356   0.000000
     3  H    1.093417   1.787968   0.000000
     4  H    1.095358   1.794859   1.787961   0.000000
     5  N    1.469403   2.104333   2.096505   2.104331   0.000000
     6  C    2.501816   3.195545   2.607748   3.195634   1.340435
     7  H    2.837946   3.576898   2.496197   3.577063   2.152261
     8  N    3.603102   4.179645   3.903266   4.179702   2.180296
     9  C    2.537369   2.854016   3.401066   2.853929   1.381832
    10  H    2.831103   2.898066   3.864414   2.897905   2.163523
    11  C    3.634507   4.038212   4.283420   4.038190   2.208696
    12  H    4.667953   4.999962   5.360133   4.999906   3.274233
    13  C    4.992108   5.583662   5.120684   5.583736   3.627001
    14  H    5.548239   6.227126   5.749963   5.965648   4.159975
    15  H    5.548307   5.965647   5.750115   6.227194   4.160019
    16  C    5.364806   6.026371   5.174637   6.026549   4.240509
    17  H    6.458915   7.107159   6.263129   7.107325   5.305174
    18  H    5.186512   5.995636   4.886816   5.720860   4.211797
    19  H    5.186581   5.720672   4.886989   5.995880   4.211839
                    6          7          8          9         10
     6  C    0.000000
     7  H    1.081118   0.000000
     8  N    1.339243   2.159658   0.000000
     9  C    2.209759   3.253016   2.213769   0.000000
    10  H    3.236548   4.235299   3.279357   1.083211   0.000000
    11  C    2.206828   3.254166   1.382845   1.366189   2.229850
    12  H    3.233273   4.238202   2.163017   2.228453   2.778363
    13  C    2.531919   2.889804   1.486668   3.649583   4.680122
    14  H    3.200580   3.627135   2.082693   3.989466   4.942001
    15  H    3.200659   3.627253   2.082676   3.989427   4.941939
    16  C    2.919626   2.683031   2.514191   4.691341   5.771183
    17  H    3.999239   3.767802   3.435960   5.648228   6.714792
    18  H    2.916201   2.484377   2.821904   4.830863   5.897728
    19  H    2.916285   2.484542   2.821893   4.830832   5.897679
                   11         12         13         14         15
    11  C    0.000000
    12  H    1.083213   0.000000
    13  C    2.539847   2.817602   0.000000
    14  H    2.789325   2.807215   1.096961   0.000000
    15  H    2.789218   2.807048   1.096959   1.776506   0.000000
    16  C    3.832666   4.293160   1.520583   2.170758   2.170761
    17  H    4.653101   4.924608   2.133263   2.481388   2.481393
    18  H    4.147067   4.723331   2.184902   2.528393   3.095450
    19  H    4.146999   4.723237   2.184905   3.095450   2.528406
                   16         17         18         19
    16  C    0.000000
    17  H    1.096463   0.000000
    18  H    1.098186   1.768138   0.000000
    19  H    1.098184   1.768144   1.795098   0.000000
 Stoichiometry    C6H11N2(1+)
 Framework group  C1[X(C6H11N2)]
 Deg. of freedom    51
 Full point group                 C1      NOp   1
 Largest Abelian subgroup         C1      NOp   1
 Largest concise Abelian subgroup C1      NOp   1
                         Standard orientation:                         
 ---------------------------------------------------------------------
 Center     Atomic      Atomic             Coordinates (Angstroms)
 Number     Number       Type             X           Y           Z
 ---------------------------------------------------------------------
      1          6           0       -2.640414   -1.081649    0.000000
      2          1           0       -3.234044   -0.877017    0.897516
      3          1           0       -2.326691   -2.129093   -0.000175
      4          1           0       -3.234227   -0.876786   -0.897344
      5          7           0       -1.445182   -0.226916   -0.000014
      6          6           0       -0.175143   -0.655596   -0.000039
      7          1           0        0.131021   -1.692456   -0.000034
      8          7           0        0.641205    0.406076   -0.000011
      9          6           0       -1.442066    1.154912    0.000029
     10          1           0       -2.356728    1.735205    0.000074
     11          6           0       -0.134511    1.550858    0.000034
     12          1           0        0.301824    2.542303    0.000013
     13          6           0        2.127842    0.396484   -0.000067
     14          1           0        2.442236    0.958057   -0.888389
     15          1           0        2.442281    0.958247    0.888117
     16          6           0        2.723807   -1.002443    0.000064
     17          1           0        3.816153   -0.907516    0.000021
     18          1           0        2.444440   -1.570320   -0.897423
     19          1           0        2.444483   -1.570140    0.897675
 ---------------------------------------------------------------------
 Rotational constants (GHZ):      4.5132647      1.3909962      1.0853823
 Standard basis: Aug-CC-pVDZ (5D, 7F)
 There are   299 symmetry adapted cartesian basis functions of A   symmetry.
 There are   283 symmetry adapted basis functions of A   symmetry.
   283 basis functions,   465 primitive gaussians,   299 cartesian basis functions
    30 alpha electrons       30 beta electrons
       nuclear repulsion energy       380.2999819511 Hartrees.
 NAtoms=   19 NActive=   19 NUniq=   19 SFac= 1.00D+00 NAtFMM=   60 NAOKFM=F Big=F
 Integral buffers will be    131072 words long.
 Raffenetti 2 integral format.
 Two-electron integral symmetry is turned on.
 One-electron integrals computed using PRISM.
 NBasis=   283 RedAO= T EigKep=  5.19D-06  NBF=   283
 NBsUse=   283 1.00D-06 EigRej= -1.00D+00 NBFU=   283
 ExpMin= 2.97D-02 ExpMax= 9.05D+03 ExpMxC= 3.09D+02 IAcc=3 IRadAn=         5 AccDes= 0.00D+00
 Harris functional with IExCor=  402 and IRadAn=       5 diagonalized for initial guess.
 HarFok:  IExCor=  402 AccDes= 0.00D+00 IRadAn=         5 IDoV= 1 UseB2=F ITyADJ=14
 ICtDFT=  3500011 ScaDFX=  1.000000  1.000000  1.000000  1.000000
 FoFCou: FMM=F IPFlag=           0 FMFlag=      100000 FMFlg1=           0
         NFxFlg=           0 DoJE=T BraDBF=F KetDBF=T FulRan=T
         wScrn=  0.000000 ICntrl=     500 IOpCl=  0 I1Cent=   200000004 NGrid=           0
         NMat0=    1 NMatS0=      1 NMatT0=    0 NMatD0=    1 NMtDS0=    0 NMtDT0=    0
 Petite list used in FoFCou.
 Keep R1 ints in memory in canonical form, NReq=821268030.
 Requested convergence on RMS density matrix=1.00D-08 within 128 cycles.
 Requested convergence on MAX density matrix=1.00D-06.
 Requested convergence on             energy=1.00D-06.
 No special actions if energy rises.
 SCF Done:  E(RB3LYP) =  -344.580311527     A.U. after   13 cycles
            NFock= 13  Conv=0.34D-08     -V/T= 2.0069
 DoSCS=F DFT=T ScalE2(SS,OS)=  1.000000  1.000000
 Range of M.O.s used for correlation:     1   283
 NBasis=   283 NAE=    30 NBE=    30 NFC=     0 NFV=     0
 NROrb=    283 NOA=    30 NOB=    30 NVA=   253 NVB=   253

 **** Warning!!: The largest alpha MO coefficient is  0.91288456D+02

 Symmetrizing basis deriv contribution to polar:
 IMax=3 JMax=2 DiffMx= 0.00D+00
 G2DrvN: will do    20 centers at a time, making    1 passes.
 Calling FoFCou, ICntrl=  3107 FMM=F I1Cent=   0 AccDes= 0.00D+00.
 End of G2Drv F.D. properties file   721 does not exist.
 End of G2Drv F.D. properties file   722 does not exist.
 End of G2Drv F.D. properties file   788 does not exist.
          IDoAtm=1111111111111111111
          Differentiating once with respect to electric field.
                with respect to dipole field.
          Differentiating once with respect to nuclear coordinates.
 Keep R1 ints in memory in canonical form, NReq=820983966.
          There are    60 degrees of freedom in the 1st order CPHF.  IDoFFX=6 NUNeed=     3.
     58 vectors produced by pass  0 Test12= 1.27D-14 1.67D-09 XBig12= 8.18D+01 4.99D+00.
 AX will form    58 AO Fock derivatives at one time.
     57 vectors produced by pass  1 Test12= 1.27D-14 1.67D-09 XBig12= 2.59D+01 1.57D+00.
     57 vectors produced by pass  2 Test12= 1.27D-14 1.67D-09 XBig12= 2.83D-01 5.39D-02.
     57 vectors produced by pass  3 Test12= 1.27D-14 1.67D-09 XBig12= 1.43D-03 4.04D-03.
     57 vectors produced by pass  4 Test12= 1.27D-14 1.67D-09 XBig12= 1.61D-06 2.06D-04.
     47 vectors produced by pass  5 Test12= 1.27D-14 1.67D-09 XBig12= 1.32D-09 4.27D-06.
      4 vectors produced by pass  6 Test12= 1.27D-14 1.67D-09 XBig12= 1.02D-12 8.44D-08.
      4 vectors produced by pass  7 Test12= 1.27D-14 1.67D-09 XBig12= 6.18D-14 3.97D-08.
      3 vectors produced by pass  8 Test12= 1.27D-14 1.67D-09 XBig12= 3.86D-16 3.33D-09.
      3 vectors produced by pass  9 Test12= 1.27D-14 1.67D-09 XBig12= 1.85D-16 2.21D-09.
      2 vectors produced by pass 10 Test12= 1.27D-14 1.67D-09 XBig12= 2.60D-16 2.88D-09.
      1 vectors produced by pass 11 Test12= 1.27D-14 1.67D-09 XBig12= 2.57D-16 2.19D-09.
 InvSVY:  IOpt=1 It=  1 EMax= 1.24D-14
 Solved reduced A of dimension   350 with    60 vectors.
 Isotropic polarizability for W=    0.000000       80.80 Bohr**3.
 End of Minotr F.D. properties file   721 does not exist.
 End of Minotr F.D. properties file   722 does not exist.
 End of Minotr F.D. properties file   788 does not exist.

 **********************************************************************

            Population analysis using the SCF density.

 **********************************************************************

 Orbital symmetries:
       Occupied  (A) (A) (A) (A) (A) (A) (A) (A) (A) (A) (A) (A)
                 (A) (A) (A) (A) (A) (A) (A) (A) (A) (A) (A) (A)
                 (A) (A) (A) (A) (A) (A)
       Virtual   (A) (A) (A) (A) (A) (A) (A) (A) (A) (A) (A) (A)
                 (A) (A) (A) (A) (A) (A) (A) (A) (A) (A) (A) (A)
                 (A) (A) (A) (A) (A) (A) (A) (A) (A) (A) (A) (A)
                 (A) (A) (A) (A) (A) (A) (A) (A) (A) (A) (A) (A)
                 (A) (A) (A) (A) (A) (A) (A) (A) (A) (A) (A) (A)
                 (A) (A) (A) (A) (A) (A) (A) (A) (A) (A) (A) (A)
                 (A) (A) (A) (A) (A) (A) (A) (A) (A) (A) (A) (A)
                 (A) (A) (A) (A) (A) (A) (A) (A) (A) (A) (A) (A)
                 (A) (A) (A) (A) (A) (A) (A) (A) (A) (A) (A) (A)
                 (A) (A) (A) (A) (A) (A) (A) (A) (A) (A) (A) (A)
                 (A) (A) (A) (A) (A) (A) (A) (A) (A) (A) (A) (A)
                 (A) (A) (A) (A) (A) (A) (A) (A) (A) (A) (A) (A)
                 (A) (A) (A) (A) (A) (A) (A) (A) (A) (A) (A) (A)
                 (A) (A) (A) (A) (A) (A) (A) (A) (A) (A) (A) (A)
                 (A) (A) (A) (A) (A) (A) (A) (A) (A) (A) (A) (A)
                 (A) (A) (A) (A) (A) (A) (A) (A) (A) (A) (A) (A)
                 (A) (A) (A) (A) (A) (A) (A) (A) (A) (A) (A) (A)
                 (A) (A) (A) (A) (A) (A) (A) (A) (A) (A) (A) (A)
                 (A) (A) (A) (A) (A) (A) (A) (A) (A) (A) (A) (A)
                 (A) (A) (A) (A) (A) (A) (A) (A) (A) (A) (A) (A)
                 (A) (A) (A) (A) (A) (A) (A) (A) (A) (A) (A) (A)
                 (A)
 The electronic state is 1-A.
 Alpha  occ. eigenvalues --  -14.59297 -14.59017 -10.45180 -10.40481 -10.40383
 Alpha  occ. eigenvalues --  -10.39803 -10.39571 -10.33689  -1.24179  -1.12474
 Alpha  occ. eigenvalues --   -0.97342  -0.94057  -0.89998  -0.82077  -0.81002
 Alpha  occ. eigenvalues --   -0.76974  -0.71737  -0.67376  -0.64230  -0.64009
 Alpha  occ. eigenvalues --   -0.63415  -0.63179  -0.61714  -0.57880  -0.57347
 Alpha  occ. eigenvalues --   -0.54675  -0.53360  -0.52551  -0.47094  -0.43523
 Alpha virt. eigenvalues --   -0.18950  -0.16090  -0.13917  -0.12165  -0.11459
 Alpha virt. eigenvalues --   -0.10509  -0.09473  -0.09192  -0.09100  -0.07822
 Alpha virt. eigenvalues --   -0.07301  -0.06675  -0.06252  -0.05786  -0.05442
 Alpha virt. eigenvalues --   -0.04618  -0.04125  -0.03190  -0.02733  -0.02563
 Alpha virt. eigenvalues --   -0.01161  -0.00672  -0.00352  -0.00163  -0.00058
 Alpha virt. eigenvalues --    0.00486   0.00509   0.01106   0.01527   0.01690
 Alpha virt. eigenvalues --    0.01867   0.02345   0.02628   0.02795   0.03293
 Alpha virt. eigenvalues --    0.03611   0.03855   0.04492   0.05310   0.05895
 Alpha virt. eigenvalues --    0.07072   0.07202   0.07807   0.08250   0.08272
 Alpha virt. eigenvalues --    0.09328   0.10179   0.10734   0.10877   0.12102
 Alpha virt. eigenvalues --    0.13120   0.13764   0.13993   0.14631   0.14857
 Alpha virt. eigenvalues --    0.15914   0.16909   0.17151   0.17571   0.19502
 Alpha virt. eigenvalues --    0.19999   0.20811   0.20980   0.21453   0.22294
 Alpha virt. eigenvalues --    0.22599   0.23212   0.24057   0.24357   0.24383
 Alpha virt. eigenvalues --    0.24831   0.27157   0.27247   0.28158   0.28667
 Alpha virt. eigenvalues --    0.29455   0.30086   0.30304   0.30912   0.31121
 Alpha virt. eigenvalues --    0.31396   0.32038   0.32310   0.33381   0.34190
 Alpha virt. eigenvalues --    0.34994   0.35102   0.35379   0.36270   0.37081
 Alpha virt. eigenvalues --    0.37759   0.38648   0.38819   0.39299   0.40613
 Alpha virt. eigenvalues --    0.41306   0.42891   0.43187   0.43348   0.43861
 Alpha virt. eigenvalues --    0.45106   0.47022   0.47057   0.47983   0.48497
 Alpha virt. eigenvalues --    0.49115   0.49943   0.51184   0.51415   0.51609
 Alpha virt. eigenvalues --    0.52533   0.53364   0.53515   0.55280   0.55334
 Alpha virt. eigenvalues --    0.55939   0.56812   0.58511   0.58593   0.59701
 Alpha virt. eigenvalues --    0.60319   0.61214   0.61826   0.61858   0.63497
 Alpha virt. eigenvalues --    0.64457   0.66111   0.66875   0.67847   0.68051
 Alpha virt. eigenvalues --    0.72711   0.73472   0.74355   0.76103   0.78116
 Alpha virt. eigenvalues --    0.78279   0.78431   0.80561   0.81512   0.84908
 Alpha virt. eigenvalues --    0.85718   0.85954   0.88493   0.89001   0.89724
 Alpha virt. eigenvalues --    0.91078   0.93153   0.95442   0.96254   0.98373
 Alpha virt. eigenvalues --    0.99880   1.01245   1.06240   1.09856   1.10892
 Alpha virt. eigenvalues --    1.15145   1.16687   1.18740   1.19456   1.20534
 Alpha virt. eigenvalues --    1.20735   1.23663   1.25404   1.27754   1.27916
 Alpha virt. eigenvalues --    1.29742   1.32479   1.33644   1.35396   1.36084
 Alpha virt. eigenvalues --    1.37006   1.38771   1.39717   1.41589   1.43910
 Alpha virt. eigenvalues --    1.45777   1.45828   1.46403   1.50531   1.51697
 Alpha virt. eigenvalues --    1.53237   1.53444   1.54419   1.57184   1.57351
 Alpha virt. eigenvalues --    1.63313   1.64838   1.65419   1.68020   1.68165
 Alpha virt. eigenvalues --    1.70779   1.70897   1.71361   1.71936   1.75049
 Alpha virt. eigenvalues --    1.75783   1.79336   1.80669   1.82426   1.82786
 Alpha virt. eigenvalues --    1.83297   1.84694   1.86453   1.89299   1.90321
 Alpha virt. eigenvalues --    1.93918   1.94465   1.97888   1.99277   2.00621
 Alpha virt. eigenvalues --    2.01200   2.05392   2.05664   2.07871   2.08789
 Alpha virt. eigenvalues --    2.11305   2.13682   2.15500   2.18869   2.19486
 Alpha virt. eigenvalues --    2.19665   2.21635   2.23351   2.25524   2.27208
 Alpha virt. eigenvalues --    2.29714   2.29997   2.34778   2.36165   2.40426
 Alpha virt. eigenvalues --    2.40828   2.44091   2.45955   2.46106   2.47121
 Alpha virt. eigenvalues --    2.49798   2.50714   2.52708   2.56338   2.59350
 Alpha virt. eigenvalues --    2.63207   2.64519   2.68658   2.75293   2.77871
 Alpha virt. eigenvalues --    2.82225   2.84825   2.92840   2.96966   3.04826
 Alpha virt. eigenvalues --    3.11643   3.33264   3.64280
          Condensed to atoms (all electrons):
               1          2          3          4          5          6
     1  C    4.121657   0.104297   0.354861   0.104460   0.566072  -0.182001
     2  H    0.104297   1.601063  -0.362507  -0.234299  -0.023120  -0.146769
     3  H    0.354861  -0.362507   1.759692  -0.362509  -0.161845   0.315220
     4  H    0.104460  -0.234299  -0.362509   1.601133  -0.023342  -0.146775
     5  N    0.566072  -0.023120  -0.161845  -0.023342   7.927176   0.179922
     6  C   -0.182001  -0.146769   0.315220  -0.146775   0.179922   7.562708
     7  H    0.068124  -0.004268   0.037016  -0.004264  -0.508454   0.222682
     8  N   -0.048164   0.019672   0.048407   0.019629  -0.723875  -0.154516
     9  C   -0.306015   0.235987  -0.271589   0.236150  -0.167227  -1.007414
    10  H   -0.079808  -0.008294  -0.000974  -0.008277   0.052321   0.093502
    11  C   -0.028086  -0.017410  -0.007785  -0.017509   0.219768  -0.777246
    12  H    0.007549  -0.001426   0.000004  -0.001428  -0.023297   0.003467
    13  C    0.019961   0.008422  -0.014926   0.008414  -0.041317  -0.246929
    14  H    0.000061  -0.000173  -0.000888   0.001550  -0.057422   0.013905
    15  H    0.000056   0.001549  -0.000888  -0.000173  -0.057475   0.013793
    16  C   -0.009893  -0.004410   0.017193  -0.004408  -0.007616  -0.162014
    17  H    0.000256  -0.000326   0.001459  -0.000326   0.008219  -0.195395
    18  H   -0.000831   0.001099  -0.001183  -0.001018  -0.008007   0.175739
    19  H   -0.000827  -0.001017  -0.001185   0.001099  -0.007972   0.175774
               7          8          9         10         11         12
     1  C    0.068124  -0.048164  -0.306015  -0.079808  -0.028086   0.007549
     2  H   -0.004268   0.019672   0.235987  -0.008294  -0.017410  -0.001426
     3  H    0.037016   0.048407  -0.271589  -0.000974  -0.007785   0.000004
     4  H   -0.004264   0.019629   0.236150  -0.008277  -0.017509  -0.001428
     5  N   -0.508454  -0.723875  -0.167227   0.052321   0.219768  -0.023297
     6  C    0.222682  -0.154516  -1.007414   0.093502  -0.777246   0.003467
     7  H    1.984210  -0.263367  -0.071607  -0.003170  -0.082157   0.001250
     8  N   -0.263367   7.859137   0.364442  -0.073103  -0.093708   0.009898
     9  C   -0.071607   0.364442   7.734268  -0.404156  -1.245722  -0.026356
    10  H   -0.003170  -0.073103  -0.404156   1.987924   0.062245  -0.048332
    11  C   -0.082157  -0.093708  -1.245722   0.062245   7.785145  -0.271685
    12  H    0.001250   0.009898  -0.026356  -0.048332  -0.271685   2.045406
    13  C    0.161344   0.207076   0.221502  -0.006222  -0.521240  -0.013067
    14  H    0.002595  -0.097168   0.041543  -0.001153   0.065153  -0.034629
    15  H    0.002602  -0.097310   0.041510  -0.001154   0.065307  -0.034624
    16  C    0.067257   0.148154  -0.201718   0.012278   0.218063  -0.032100
    17  H    0.002021   0.180276  -0.020303   0.000116   0.068943   0.003561
    18  H   -0.017226  -0.146223   0.021668   0.001459  -0.057374  -0.002704
    19  H   -0.017252  -0.146221   0.021648   0.001458  -0.057356  -0.002701
              13         14         15         16         17         18
     1  C    0.019961   0.000061   0.000056  -0.009893   0.000256  -0.000831
     2  H    0.008422  -0.000173   0.001549  -0.004410  -0.000326   0.001099
     3  H   -0.014926  -0.000888  -0.000888   0.017193   0.001459  -0.001183
     4  H    0.008414   0.001550  -0.000173  -0.004408  -0.000326  -0.001018
     5  N   -0.041317  -0.057422  -0.057475  -0.007616   0.008219  -0.008007
     6  C   -0.246929   0.013905   0.013793  -0.162014  -0.195395   0.175739
     7  H    0.161344   0.002595   0.002602   0.067257   0.002021  -0.017226
     8  N    0.207076  -0.097168  -0.097310   0.148154   0.180276  -0.146223
     9  C    0.221502   0.041543   0.041510  -0.201718  -0.020303   0.021668
    10  H   -0.006222  -0.001153  -0.001154   0.012278   0.000116   0.001459
    11  C   -0.521240   0.065153   0.065307   0.218063   0.068943  -0.057374
    12  H   -0.013067  -0.034629  -0.034624  -0.032100   0.003561  -0.002704
    13  C    4.992028  -0.138429  -0.138378   0.240005  -0.011224   0.042669
    14  H   -0.138429   2.144793  -0.193591  -0.187006  -0.114369  -0.142633
    15  H   -0.138378  -0.193591   2.144950  -0.186971  -0.114335   0.132857
    16  C    0.240005  -0.187006  -0.186971   4.618630   0.434455   0.073358
    17  H   -0.011224  -0.114369  -0.114335   0.434455   1.944252  -0.389925
    18  H    0.042669  -0.142633   0.132857   0.073358  -0.389925   1.769143
    19  H    0.042578   0.132867  -0.142673   0.073343  -0.389953  -0.301761
              19
     1  C   -0.000827
     2  H   -0.001017
     3  H   -0.001185
     4  H    0.001099
     5  N   -0.007972
     6  C    0.175774
     7  H   -0.017252
     8  N   -0.146221
     9  C    0.021648
    10  H    0.001458
    11  C   -0.057356
    12  H   -0.002701
    13  C    0.042578
    14  H    0.132867
    15  H   -0.142673
    16  C    0.073343
    17  H   -0.389953
    18  H   -0.301761
    19  H    1.769291
 Mulliken charges:
               1
     1  C    1.308271
     2  H   -0.168071
     3  H   -0.347574
     4  H   -0.168104
     5  N   -0.142509
     6  C    0.262346
     7  H   -0.577339
     8  N   -0.013034
     9  C    0.803388
    10  H   -0.576660
    11  C    0.692652
    12  H   -0.578788
    13  C    1.187732
    14  H   -0.435006
    15  H   -0.435054
    16  C    0.893401
    17  H   -0.407403
    18  H   -0.149107
    19  H   -0.149142
 Sum of Mulliken charges =   1.00000
 Mulliken charges with hydrogens summed into heavy atoms:
               1
     1  C    0.624522
     5  N   -0.142509
     6  C   -0.314992
     8  N   -0.013034
     9  C    0.226728
    11  C    0.113864
    13  C    0.317672
    16  C    0.187749
 APT charges:
               1
     1  C    0.308392
     2  H    0.032769
     3  H    0.042688
     4  H    0.032776
     5  N   -0.266834
     6  C    0.216739
     7  H    0.147857
     8  N   -0.290880
     9  C    0.011414
    10  H    0.138387
    11  C    0.012829
    12  H    0.137563
    13  C    0.392502
    14  H    0.001361
    15  H    0.001374
    16  C    0.006267
    17  H    0.047376
    18  H    0.013707
    19  H    0.013714
 Sum of APT charges =   1.00000
 APT charges with hydrogens summed into heavy atoms:
               1
     1  C    0.416625
     5  N   -0.266834
     6  C    0.364596
     8  N   -0.290880
     9  C    0.149801
    11  C    0.150392
    13  C    0.395237
    16  C    0.081064
 Electronic spatial extent (au):  <R**2>=           1097.9234
 Charge=              1.0000 electrons
 Dipole moment (field-independent basis, Debye):
    X=             -1.0378    Y=             -0.2993    Z=             -0.0001  Tot=              1.0801
 Quadrupole moment (field-independent basis, Debye-Ang):
   XX=            -21.8623   YY=            -35.4978   ZZ=            -47.8867
   XY=              2.0662   XZ=             -0.0003   YZ=              0.0001
 Traceless Quadrupole moment (field-independent basis, Debye-Ang):
   XX=             13.2200   YY=             -0.4155   ZZ=            -12.8044
   XY=              2.0662   XZ=             -0.0003   YZ=              0.0001
 Octapole moment (field-independent basis, Debye-Ang**2):
  XXX=            -12.0269  YYY=              4.7983  ZZZ=              0.0001  XYY=             -5.6876
  XXY=             -6.7741  XXZ=             -0.0001  XZZ=              0.3444  YZZ=             -2.0424
  YYZ=             -0.0001  XYZ=             -0.0003
 Hexadecapole moment (field-independent basis, Debye-Ang**3):
 XXXX=           -814.3113 YYYY=           -297.5644 ZZZZ=            -68.1269 XXXY=             10.9497
 XXXZ=              0.0004 YYYX=              9.4504 YYYZ=              0.0026 ZZZX=             -0.0017
 ZZZY=             -0.0017 XXYY=           -196.1836 XXZZ=           -173.5680 YYZZ=            -72.7172
 XXYZ=             -0.0002 YYXZ=              0.0001 ZZXY=              5.0051
 N-N= 3.802999819511D+02 E-N=-1.548006333907D+03  KE= 3.422276301468D+02
  Exact polarizability: 102.656   1.099  83.516  -0.001   0.001  56.238
 Approx polarizability: 138.546   2.754 128.729  -0.001   0.001  85.389
 Calling FoFJK, ICntrl=    100127 FMM=F ISym2X=0 I1Cent= 0 IOpClX= 0 NMat=1 NMatS=1 NMatT=0.
 Full mass-weighted force constant matrix:
 Low frequencies ---  -12.9815   -3.9072   -2.1359   -0.0009   -0.0008   -0.0006
 Low frequencies ---   34.0933   69.1184  171.3330
 Diagonal vibrational polarizability:
        4.2829361       1.2385278      17.1644982
 Harmonic frequencies (cm**-1), IR intensities (KM/Mole), Raman scattering
 activities (A**4/AMU), depolarization ratios for plane and unpolarized
 incident light, reduced masses (AMU), force constants (mDyne/A),
 and normal coordinates:
                      1                      2                      3
                      A                      A                      A
 Frequencies --     33.3729                69.1143               171.3309
 Red. masses --      2.0417                 1.0991                 2.2583
 Frc consts  --      0.0013                 0.0031                 0.0391
 IR Inten    --      0.3290                 0.2235                 3.3959
  Atom  AN      X      Y      Z        X      Y      Z        X      Y      Z
     1   6     0.00   0.00   0.02     0.00   0.00  -0.05     0.00   0.00   0.15
     2   1    -0.10   0.14  -0.08    -0.31   0.37  -0.34     0.06   0.17   0.14
     3   1     0.00   0.00   0.21     0.00   0.00   0.51     0.00   0.00   0.34
     4   1     0.10  -0.14  -0.08     0.31  -0.37  -0.34    -0.06  -0.17   0.14
     5   7     0.00   0.00   0.02     0.00   0.00   0.03     0.00   0.00  -0.06
     6   6     0.00   0.00   0.11     0.00   0.00   0.00     0.00   0.00  -0.20
     7   1     0.00   0.00   0.21     0.00   0.00  -0.02     0.00   0.00  -0.29
     8   7     0.00   0.00   0.05     0.00   0.00  -0.01     0.00   0.00  -0.16
     9   6     0.00   0.00  -0.10     0.00   0.00   0.05     0.00   0.00   0.05
    10   1     0.00   0.00  -0.20     0.00   0.00   0.08     0.00   0.00   0.18
    11   6     0.00   0.00  -0.08     0.00   0.00   0.02     0.00   0.00  -0.01
    12   1     0.00   0.00  -0.15     0.00   0.00   0.03     0.00   0.00   0.06
    13   6     0.00   0.00   0.17     0.00   0.00  -0.04     0.00   0.00   0.11
    14   1     0.06   0.24   0.34    -0.02  -0.04  -0.07     0.18   0.12   0.25
    15   1    -0.06  -0.24   0.34     0.02   0.04  -0.07    -0.18  -0.12   0.25
    16   6     0.00   0.00  -0.18     0.00   0.00   0.01     0.00   0.00   0.05
    17   1     0.00   0.00  -0.15     0.00   0.00  -0.02     0.00   0.00   0.38
    18   1     0.00   0.23  -0.32    -0.01  -0.04   0.03     0.25   0.14  -0.11
    19   1     0.00  -0.23  -0.32     0.01   0.04   0.03    -0.25  -0.14  -0.11
                      4                      5                      6
                      A                      A                      A
 Frequencies --    188.8404               249.5452               302.4245
 Red. masses --      2.9789                 2.5096                 1.2935
 Frc consts  --      0.0626                 0.0921                 0.0697
 IR Inten    --      0.5782                 0.6315                 0.1734
  Atom  AN      X      Y      Z        X      Y      Z        X      Y      Z
     1   6    -0.17   0.14   0.00     0.00   0.00  -0.13     0.00   0.00  -0.01
     2   1    -0.14   0.24   0.00    -0.12  -0.24  -0.15    -0.02  -0.04  -0.02
     3   1    -0.33   0.09   0.00     0.00   0.00  -0.37     0.00   0.00  -0.05
     4   1    -0.14   0.24   0.00     0.12   0.24  -0.15     0.02   0.04  -0.02
     5   7    -0.05  -0.02   0.00     0.00   0.00   0.22     0.00   0.00   0.04
     6   6    -0.07  -0.10   0.00     0.00   0.00   0.07     0.00   0.00  -0.04
     7   1    -0.11  -0.11   0.00     0.00   0.00   0.08     0.00   0.00  -0.04
     8   7    -0.02  -0.12   0.00     0.00   0.00  -0.15     0.00   0.00  -0.09
     9   6     0.02  -0.02   0.00     0.00   0.00   0.13     0.00   0.00   0.05
    10   1     0.05   0.02   0.00     0.00   0.00   0.20     0.00   0.00   0.11
    11   6     0.04  -0.09   0.00     0.00   0.00  -0.13     0.00   0.00  -0.05
    12   1     0.09  -0.12   0.00     0.00   0.00  -0.27     0.00   0.00  -0.08
    13   6    -0.01   0.02   0.00     0.00   0.00  -0.01     0.00   0.00   0.08
    14   1    -0.09   0.07   0.00     0.10   0.04   0.05     0.09   0.08   0.17
    15   1    -0.09   0.07   0.00    -0.10  -0.04   0.05    -0.09  -0.08   0.17
    16   6     0.25   0.13   0.00     0.00   0.00   0.02     0.00   0.00   0.02
    17   1     0.23   0.37   0.00     0.00   0.00   0.41     0.00   0.00  -0.56
    18   1     0.37   0.08   0.00     0.29   0.10  -0.13    -0.44  -0.14   0.24
    19   1     0.37   0.08   0.00    -0.29  -0.10  -0.13     0.44   0.14   0.24
                      7                      8                      9
                      A                      A                      A
 Frequencies --    355.9015               447.4100               592.0707
 Red. masses --      2.8158                 3.2656                 3.5244
 Frc consts  --      0.2101                 0.3851                 0.7279
 IR Inten    --      0.5075                 0.7661                 1.2456
  Atom  AN      X      Y      Z        X      Y      Z        X      Y      Z
     1   6    -0.09   0.16   0.00     0.07  -0.05   0.00     0.23   0.16   0.00
     2   1    -0.03   0.36   0.00     0.04  -0.16   0.00     0.23   0.19  -0.01
     3   1    -0.42   0.06   0.00     0.25   0.00   0.00     0.13   0.14   0.00
     4   1    -0.03   0.36   0.00     0.04  -0.16   0.00     0.23   0.19   0.01
     5   7     0.11  -0.13   0.00    -0.02   0.06   0.00     0.13   0.01   0.00
     6   6     0.13  -0.07   0.00    -0.08  -0.10   0.00     0.05  -0.05   0.00
     7   1     0.21  -0.05   0.00    -0.22  -0.14   0.00     0.11  -0.04   0.00
     8   7     0.05   0.02   0.00     0.00  -0.16   0.00    -0.10  -0.01   0.00
     9   6     0.03  -0.15   0.00     0.13   0.08   0.00     0.00  -0.03   0.00
    10   1    -0.03  -0.24   0.00     0.22   0.21   0.00    -0.08  -0.16   0.00
    11   6    -0.02  -0.04   0.00     0.18  -0.11   0.00    -0.04   0.02   0.00
    12   1    -0.09  -0.01   0.00     0.36  -0.19   0.00     0.01   0.00   0.00
    13   6     0.02   0.12   0.00    -0.09   0.11   0.00    -0.30  -0.12   0.00
    14   1     0.03   0.10  -0.01    -0.17   0.15   0.00    -0.25  -0.12   0.02
    15   1     0.03   0.10   0.01    -0.17   0.15   0.00    -0.25  -0.12  -0.02
    16   6    -0.17   0.05   0.00    -0.17   0.16   0.00    -0.02   0.00   0.00
    17   1    -0.15  -0.19   0.00    -0.16  -0.01   0.00    -0.06   0.46   0.00
    18   1    -0.30   0.11   0.00    -0.27   0.20   0.00     0.24  -0.12  -0.01
    19   1    -0.30   0.11   0.00    -0.27   0.20   0.00     0.24  -0.12   0.01
                     10                     11                     12
                      A                      A                      A
 Frequencies --    632.4474               639.0705               707.8141
 Red. masses --      3.1732                 2.8703                 3.7277
 Frc consts  --      0.7478                 0.6907                 1.1004
 IR Inten    --      0.2162                20.8189                 6.6420
  Atom  AN      X      Y      Z        X      Y      Z        X      Y      Z
     1   6     0.00   0.00   0.02     0.00   0.00   0.02     0.23   0.17   0.00
     2   1    -0.12  -0.10  -0.04    -0.09  -0.07  -0.03     0.19   0.10  -0.01
     3   1     0.00   0.00  -0.06     0.00   0.00  -0.02     0.27   0.19   0.00
     4   1     0.12   0.10  -0.04     0.09   0.07  -0.03     0.19   0.10   0.01
     5   7     0.00   0.00   0.21     0.00   0.00   0.19    -0.01   0.09   0.00
     6   6     0.00   0.00  -0.02     0.00   0.00  -0.23    -0.09  -0.07   0.00
     7   1     0.00   0.00  -0.10     0.00   0.00  -0.81    -0.36  -0.15   0.00
     8   7     0.00   0.00  -0.16     0.00   0.00   0.22    -0.01  -0.10   0.00
     9   6     0.00   0.00  -0.25     0.00   0.00  -0.07    -0.19   0.00   0.00
    10   1     0.00   0.00  -0.61     0.00   0.00  -0.15    -0.24  -0.07   0.00
    11   6     0.00   0.00   0.23     0.00   0.00  -0.11    -0.16  -0.14   0.00
    12   1     0.00   0.00   0.57     0.00   0.00  -0.27    -0.18  -0.14   0.00
    13   6     0.00   0.00  -0.03     0.00   0.00   0.03     0.20   0.07   0.00
    14   1     0.12   0.08   0.07    -0.14  -0.08  -0.07     0.10   0.10  -0.02
    15   1    -0.12  -0.08   0.07     0.14   0.08  -0.07     0.10   0.10   0.02
    16   6     0.00   0.00   0.00     0.00   0.00   0.00     0.05  -0.02   0.00
    17   1     0.00   0.00   0.00     0.00   0.00  -0.03     0.08  -0.40   0.00
    18   1     0.01  -0.05   0.03    -0.01   0.04  -0.03    -0.18   0.08   0.01
    19   1    -0.01   0.05   0.03     0.01  -0.04  -0.03    -0.18   0.08  -0.01
                     13                     14                     15
                      A                      A                      A
 Frequencies --    761.8099               799.7754               845.9924
 Red. masses --      1.2441                 1.1253                 1.3994
 Frc consts  --      0.4254                 0.4241                 0.5901
 IR Inten    --     27.8529                 0.2777                38.0468
  Atom  AN      X      Y      Z        X      Y      Z        X      Y      Z
     1   6     0.00   0.00   0.00     0.00   0.00   0.00     0.00   0.00   0.01
     2   1     0.00  -0.01   0.00     0.01   0.01   0.00    -0.05  -0.03  -0.02
     3   1     0.00   0.00   0.00     0.00   0.00   0.01     0.00   0.00  -0.04
     4   1     0.00   0.01   0.00    -0.01  -0.01   0.00     0.05   0.03  -0.02
     5   7     0.00   0.00   0.00     0.00   0.00  -0.02     0.00   0.00   0.05
     6   6     0.00   0.00   0.08     0.00   0.00   0.04     0.00   0.00  -0.16
     7   1     0.00   0.00  -0.35     0.00   0.00  -0.24     0.00   0.00   0.84
     8   7     0.00   0.00   0.00     0.00   0.00   0.03     0.00   0.00   0.06
     9   6     0.00   0.00  -0.09     0.00   0.00   0.01     0.00   0.00  -0.04
    10   1     0.00   0.00   0.65     0.00   0.00  -0.03     0.00   0.00   0.32
    11   6     0.00   0.00  -0.09     0.00   0.00   0.00     0.00   0.00  -0.03
    12   1     0.00   0.00   0.65     0.00   0.00  -0.14     0.00   0.00   0.24
    13   6     0.00   0.00   0.00     0.00   0.00  -0.08     0.00   0.00  -0.02
    14   1    -0.01   0.00   0.00     0.03   0.44   0.22    -0.04   0.13   0.05
    15   1     0.01   0.00   0.00    -0.03  -0.44   0.22     0.04  -0.13   0.05
    16   6     0.00   0.00   0.00     0.00   0.00  -0.04     0.00   0.00  -0.02
    17   1     0.00   0.00  -0.01     0.00   0.00   0.17     0.00   0.00   0.08
    18   1     0.00   0.00   0.00     0.12  -0.39   0.18     0.04  -0.13   0.05
    19   1     0.00   0.00   0.00    -0.12   0.39   0.18    -0.04   0.13   0.05
                     16                     17                     18
                      A                      A                      A
 Frequencies --    873.8470               972.7784              1036.0945
 Red. masses --      1.3876                 2.0756                 3.1653
 Frc consts  --      0.6243                 1.1573                 2.0020
 IR Inten    --      0.0616                 1.6958                 1.0922
  Atom  AN      X      Y      Z        X      Y      Z        X      Y      Z
     1   6     0.00   0.00   0.00    -0.01   0.01   0.00    -0.05  -0.10   0.00
     2   1     0.02   0.01   0.01    -0.01  -0.01   0.00    -0.01   0.13  -0.02
     3   1     0.00   0.00   0.01     0.03   0.02   0.00    -0.37  -0.20   0.00
     4   1    -0.02  -0.01   0.01    -0.01  -0.01   0.00    -0.01   0.13   0.02
     5   7     0.00   0.00  -0.01    -0.03   0.03   0.00     0.10   0.02   0.00
     6   6     0.00   0.00  -0.01     0.01   0.07   0.00     0.18  -0.05   0.00
     7   1     0.00   0.00   0.03    -0.07   0.05   0.00     0.34  -0.01   0.00
     8   7     0.00   0.00   0.02     0.11   0.00   0.00     0.02  -0.05   0.00
     9   6     0.00   0.00   0.13    -0.06  -0.02   0.00    -0.20   0.27   0.00
    10   1     0.00   0.00  -0.69     0.02   0.11   0.00    -0.17   0.37   0.00
    11   6     0.00   0.00  -0.13    -0.02  -0.14   0.00    -0.06  -0.10   0.00
    12   1     0.00   0.00   0.70    -0.14  -0.09   0.00     0.44  -0.32   0.00
    13   6     0.00   0.00   0.00     0.07  -0.10   0.00    -0.04   0.05   0.00
    14   1    -0.02   0.03   0.01     0.25  -0.22  -0.01    -0.05   0.05   0.00
    15   1     0.02  -0.03   0.01     0.25  -0.22   0.01    -0.05   0.05   0.00
    16   6     0.00   0.00   0.00    -0.16   0.10   0.00     0.00  -0.05   0.00
    17   1     0.00   0.00   0.02    -0.20   0.69   0.00     0.00  -0.02   0.00
    18   1     0.01  -0.03   0.01     0.23   0.01  -0.05     0.04  -0.07   0.00
    19   1    -0.01   0.03   0.01     0.23   0.01   0.05     0.04  -0.07   0.00
                     19                     20                     21
                      A                      A                      A
 Frequencies --   1050.7400              1094.6616              1102.7493
 Red. masses --      3.1856                 1.5893                 1.8826
 Frc consts  --      2.0722                 1.1221                 1.3488
 IR Inten    --      0.6231                 4.9136                 0.4266
  Atom  AN      X      Y      Z        X      Y      Z        X      Y      Z
     1   6     0.00   0.04   0.00    -0.08   0.08   0.00     0.08  -0.05   0.00
     2   1    -0.02  -0.06   0.01    -0.13  -0.36   0.07     0.10   0.26  -0.05
     3   1     0.17   0.10   0.00     0.49   0.25   0.00    -0.34  -0.18   0.00
     4   1    -0.02  -0.06  -0.01    -0.13  -0.36  -0.07     0.10   0.26   0.05
     5   7    -0.07   0.04   0.00     0.00   0.05   0.00    -0.01  -0.05   0.00
     6   6     0.04   0.20   0.00     0.06  -0.10   0.00    -0.10  -0.03   0.00
     7   1     0.25   0.28   0.00     0.14  -0.09   0.00    -0.31  -0.09   0.00
     8   7     0.07   0.06   0.00    -0.02   0.00   0.00    -0.04   0.04   0.00
     9   6     0.02  -0.11   0.00    -0.01  -0.01   0.00     0.04   0.01   0.00
    10   1     0.33   0.36   0.00    -0.16  -0.24   0.00     0.12   0.12   0.00
    11   6     0.01  -0.27   0.00     0.00   0.02   0.00     0.02   0.01   0.00
    12   1    -0.24  -0.18   0.00     0.16  -0.05   0.00     0.01   0.02   0.00
    13   6    -0.14   0.12   0.00     0.02   0.11   0.00     0.04   0.17   0.00
    14   1    -0.23   0.21   0.02     0.06   0.07  -0.01     0.10   0.12  -0.02
    15   1    -0.23   0.21  -0.02     0.06   0.07   0.01     0.10   0.12   0.02
    16   6     0.06  -0.13   0.00    -0.05  -0.08   0.00    -0.06  -0.13   0.00
    17   1     0.06  -0.19   0.00    -0.07   0.21   0.00    -0.09   0.32   0.00
    18   1     0.02  -0.15   0.02     0.21  -0.15  -0.03     0.32  -0.24  -0.05
    19   1     0.02  -0.15  -0.02     0.21  -0.15   0.03     0.32  -0.24   0.05
                     22                     23                     24
                      A                      A                      A
 Frequencies --   1123.3193              1142.0277              1155.8228
 Red. masses --      1.3223                 1.3359                 1.5528
 Frc consts  --      0.9831                 1.0265                 1.2222
 IR Inten    --     10.9035                 0.1576                 1.1989
  Atom  AN      X      Y      Z        X      Y      Z        X      Y      Z
     1   6     0.01  -0.01   0.00     0.00   0.00   0.14     0.00   0.00   0.04
     2   1     0.03   0.07  -0.01    -0.56  -0.24  -0.18    -0.14  -0.06  -0.04
     3   1    -0.07  -0.04   0.00     0.00   0.00  -0.34     0.00   0.00  -0.09
     4   1     0.03   0.07   0.01     0.56   0.24  -0.18     0.14   0.06  -0.04
     5   7    -0.01   0.00   0.00     0.00   0.00  -0.08     0.00   0.00  -0.02
     6   6    -0.04   0.11   0.00     0.00   0.00   0.00     0.00   0.00   0.00
     7   1    -0.02   0.13   0.00     0.00   0.00  -0.03     0.00   0.00  -0.04
     8   7    -0.01   0.03   0.00     0.00   0.00   0.02     0.00   0.00  -0.06
     9   6    -0.05  -0.06   0.00     0.00   0.00   0.01     0.00   0.00   0.00
    10   1    -0.35  -0.53   0.00     0.00   0.00  -0.02     0.00   0.00   0.00
    11   6     0.08  -0.03   0.00     0.00   0.00   0.00     0.00   0.00   0.01
    12   1     0.67  -0.28   0.00     0.00   0.00   0.00     0.00   0.00  -0.01
    13   6     0.01   0.00   0.00     0.00   0.00  -0.04     0.00   0.00   0.17
    14   1    -0.01   0.00   0.00     0.09   0.05   0.03    -0.38  -0.26  -0.13
    15   1    -0.01   0.00   0.00    -0.09  -0.05   0.03     0.38   0.26  -0.13
    16   6     0.00   0.00   0.00     0.00   0.00   0.03     0.00   0.00  -0.12
    17   1     0.00  -0.01   0.00     0.00   0.00  -0.05     0.00   0.00   0.24
    18   1    -0.01   0.00   0.00    -0.02   0.09  -0.03     0.09  -0.41   0.12
    19   1    -0.01   0.00   0.00     0.02  -0.09  -0.03    -0.09   0.41   0.12
                     25                     26                     27
                      A                      A                      A
 Frequencies --   1171.7329              1277.7893              1308.7247
 Red. masses --      1.7814                 1.3539                 1.0928
 Frc consts  --      1.4410                 1.3024                 1.1028
 IR Inten    --     96.8484                 7.6718                 1.5325
  Atom  AN      X      Y      Z        X      Y      Z        X      Y      Z
     1   6     0.06   0.06   0.00     0.03  -0.02   0.00     0.00   0.00   0.00
     2   1     0.03   0.00  -0.01     0.00   0.09  -0.04     0.01   0.00   0.00
     3   1     0.09   0.07   0.00    -0.10  -0.05   0.00     0.00   0.00   0.01
     4   1     0.03   0.00   0.01     0.00   0.09   0.04    -0.01   0.00   0.00
     5   7    -0.08  -0.09   0.00    -0.04   0.03   0.00     0.00   0.00   0.00
     6   6    -0.02  -0.03   0.00    -0.04   0.03   0.00     0.00   0.00   0.00
     7   1     0.72   0.20   0.00     0.59   0.22   0.00     0.00   0.00   0.01
     8   7    -0.16   0.04   0.00     0.02  -0.12   0.00     0.00   0.00   0.04
     9   6     0.02   0.01   0.00     0.02   0.06   0.00     0.00   0.00   0.00
    10   1     0.25   0.38   0.00    -0.26  -0.37   0.00     0.00   0.00   0.00
    11   6     0.00  -0.02   0.00     0.04   0.01   0.00     0.00   0.00   0.00
    12   1     0.30  -0.15   0.00    -0.42   0.22   0.00     0.00   0.00   0.01
    13   6     0.10  -0.03   0.00     0.04   0.01   0.00     0.00   0.00   0.01
    14   1     0.10  -0.08  -0.03    -0.17   0.13   0.00     0.59  -0.32   0.01
    15   1     0.10  -0.08   0.03    -0.17   0.13   0.00    -0.59   0.32   0.01
    16   6    -0.02   0.03   0.00    -0.04  -0.02   0.00     0.00   0.00  -0.07
    17   1    -0.01   0.00   0.00    -0.04   0.05   0.00     0.00   0.00   0.09
    18   1     0.01   0.05  -0.02     0.10  -0.02  -0.04     0.03  -0.20   0.04
    19   1     0.01   0.05   0.02     0.10  -0.02   0.04    -0.03   0.20   0.04
                     28                     29                     30
                      A                      A                      A
 Frequencies --   1330.1624              1355.3805              1401.5184
 Red. masses --      3.0244                 2.4476                 1.3764
 Frc consts  --      3.1528                 2.6491                 1.5929
 IR Inten    --     13.7968                21.9164                 5.4886
  Atom  AN      X      Y      Z        X      Y      Z        X      Y      Z
     1   6    -0.05  -0.10   0.00    -0.06  -0.06   0.00    -0.01  -0.02   0.00
     2   1     0.00   0.16  -0.03    -0.01   0.06   0.00     0.00   0.08  -0.02
     3   1    -0.06  -0.10   0.00    -0.02  -0.05   0.00     0.04  -0.01   0.00
     4   1     0.00   0.16   0.03    -0.01   0.06   0.00     0.00   0.08   0.02
     5   7     0.09   0.20   0.00     0.11   0.13   0.00     0.00   0.05   0.00
     6   6    -0.04  -0.11   0.00     0.07   0.06   0.00     0.02   0.03   0.00
     7   1     0.21  -0.04   0.00    -0.20  -0.01   0.00     0.02   0.03   0.00
     8   7    -0.16   0.15   0.00    -0.15  -0.03   0.00     0.00  -0.06   0.00
     9   6     0.07   0.00   0.00     0.05  -0.09   0.00     0.01  -0.06   0.00
    10   1    -0.13  -0.34   0.00     0.20   0.11   0.00     0.09   0.07   0.00
    11   6     0.07  -0.18   0.00    -0.07  -0.01   0.00    -0.04   0.04   0.00
    12   1    -0.41   0.00   0.00     0.10  -0.09   0.00     0.11  -0.03   0.00
    13   6    -0.03   0.02   0.00     0.17  -0.08   0.00     0.00   0.01   0.00
    14   1     0.35  -0.26  -0.04    -0.50   0.26  -0.02     0.04  -0.08  -0.04
    15   1     0.35  -0.26   0.04    -0.50   0.26   0.02     0.04  -0.08   0.04
    16   6     0.04   0.03   0.00    -0.05  -0.03   0.00    -0.06   0.12   0.00
    17   1     0.06  -0.16   0.00    -0.06   0.19   0.00     0.01  -0.60   0.00
    18   1    -0.06   0.00   0.05     0.07   0.14  -0.13     0.35  -0.35   0.16
    19   1    -0.06   0.00  -0.05     0.07   0.14   0.13     0.35  -0.35  -0.16
                     31                     32                     33
                      A                      A                      A
 Frequencies --   1412.0938              1434.1858              1449.6366
 Red. masses --      2.7538                 1.8506                 1.4314
 Frc consts  --      3.2353                 2.2427                 1.7723
 IR Inten    --      8.0165                 9.9179                 0.9095
  Atom  AN      X      Y      Z        X      Y      Z        X      Y      Z
     1   6     0.07  -0.07   0.00     0.09   0.05   0.00    -0.07  -0.05   0.00
     2   1    -0.22   0.35  -0.28    -0.30  -0.22  -0.19     0.34   0.32   0.18
     3   1     0.01  -0.08   0.00    -0.36  -0.09   0.00     0.48   0.13   0.00
     4   1    -0.22   0.35   0.28    -0.30  -0.22   0.19     0.34   0.32  -0.18
     5   7    -0.16   0.18   0.00    -0.06  -0.01   0.00    -0.03  -0.02   0.00
     6   6     0.09  -0.11   0.00     0.05  -0.08   0.00    -0.02  -0.07   0.00
     7   1     0.27  -0.08   0.00    -0.15  -0.16   0.00     0.03  -0.07   0.00
     8   7     0.08  -0.03   0.00     0.01   0.14   0.00     0.04   0.08   0.00
     9   6    -0.07  -0.17   0.00    -0.05   0.02   0.00    -0.07   0.00   0.00
    10   1     0.15   0.17   0.00    -0.10  -0.03   0.00    -0.04   0.08   0.00
    11   6     0.00   0.11   0.00     0.11  -0.05   0.00     0.07   0.00   0.00
    12   1     0.24   0.03   0.00    -0.12   0.06   0.00    -0.03   0.06   0.00
    13   6    -0.04   0.02   0.00     0.03  -0.09   0.00     0.01  -0.06   0.00
    14   1     0.10   0.00   0.04    -0.25   0.22   0.09    -0.11   0.23   0.14
    15   1     0.10   0.00  -0.04    -0.25   0.22  -0.09    -0.11   0.23  -0.14
    16   6     0.03  -0.05   0.00    -0.03   0.05   0.00    -0.02   0.01   0.00
    17   1     0.00   0.23   0.00     0.00  -0.24   0.00    -0.01  -0.09   0.00
    18   1    -0.15   0.12  -0.05     0.16  -0.08   0.02     0.08  -0.01  -0.01
    19   1    -0.15   0.12   0.05     0.16  -0.08  -0.02     0.08  -0.01   0.01
                     34                     35                     36
                      A                      A                      A
 Frequencies --   1461.7423              1475.2455              1479.5516
 Red. masses --      1.0358                 1.0364                 1.0616
 Frc consts  --      1.3039                 1.3289                 1.3692
 IR Inten    --     14.4024                11.1226                 2.7622
  Atom  AN      X      Y      Z        X      Y      Z        X      Y      Z
     1   6     0.00   0.00  -0.05     0.00   0.00   0.00     0.00   0.00   0.00
     2   1    -0.06  -0.50   0.05     0.00   0.01   0.00    -0.01  -0.01   0.00
     3   1     0.00   0.00   0.69     0.00   0.00  -0.01    -0.02  -0.01   0.00
     4   1     0.06   0.50   0.05     0.00  -0.01   0.00    -0.01  -0.01   0.00
     5   7     0.00   0.00  -0.02     0.00   0.00   0.00     0.01   0.01   0.00
     6   6     0.00   0.00   0.00     0.00   0.00   0.00     0.00   0.00   0.00
     7   1     0.00   0.00   0.01     0.00   0.00  -0.02     0.04   0.02   0.00
     8   7     0.00   0.00   0.00     0.00   0.00   0.00    -0.02  -0.01   0.00
     9   6     0.00   0.00   0.00     0.00   0.00   0.00     0.02   0.00   0.00
    10   1     0.00   0.00   0.00     0.00   0.00   0.00     0.01  -0.01   0.00
    11   6     0.00   0.00   0.00     0.00   0.00   0.00    -0.02   0.00   0.00
    12   1     0.00   0.00   0.00     0.00   0.00   0.00     0.02  -0.02   0.00
    13   6     0.00   0.00   0.00     0.00   0.00  -0.02     0.02  -0.03   0.00
    14   1     0.00   0.00   0.00     0.00   0.04   0.00     0.08   0.24   0.18
    15   1     0.00   0.00   0.00     0.00  -0.04   0.00     0.08   0.24  -0.18
    16   6     0.00   0.00   0.00     0.00   0.00  -0.05     0.03   0.04   0.00
    17   1     0.00   0.00   0.01     0.00   0.00   0.70    -0.01   0.31   0.00
    18   1    -0.01   0.00   0.00    -0.49   0.12   0.05    -0.28  -0.38   0.35
    19   1     0.01   0.00   0.00     0.49  -0.12   0.05    -0.28  -0.38  -0.35
                     37                     38                     39
                      A                      A                      A
 Frequencies --   1489.8476              1491.9794              1602.8798
 Red. masses --      1.1242                 1.2224                 3.8109
 Frc consts  --      1.4702                 1.6032                 5.7687
 IR Inten    --      1.2149                10.2775                57.4026
  Atom  AN      X      Y      Z        X      Y      Z        X      Y      Z
     1   6     0.00   0.02   0.00     0.01  -0.02   0.00     0.02  -0.01   0.00
     2   1     0.19  -0.21   0.17    -0.36   0.19  -0.28     0.23   0.16   0.10
     3   1    -0.36  -0.10   0.00     0.38   0.10   0.00     0.07   0.01   0.00
     4   1     0.19  -0.21  -0.17    -0.36   0.19   0.28     0.23   0.17  -0.10
     5   7     0.00   0.05   0.00     0.05  -0.05   0.00    -0.25  -0.04   0.00
     6   6    -0.02   0.00   0.00    -0.03   0.03   0.00     0.34   0.08   0.00
     7   1     0.10   0.03   0.00    -0.05   0.03   0.00    -0.51  -0.18   0.00
     8   7     0.00  -0.02   0.00    -0.01  -0.01   0.00    -0.16  -0.06   0.00
     9   6     0.01  -0.04   0.00     0.05   0.05   0.00     0.11   0.10   0.00
    10   1     0.05   0.02   0.00    -0.02  -0.07   0.00    -0.16  -0.34   0.00
    11   6    -0.03   0.01   0.00    -0.06  -0.02   0.00     0.01  -0.04   0.00
    12   1     0.06  -0.03   0.00     0.02  -0.07   0.00    -0.18   0.02   0.00
    13   6    -0.04  -0.04   0.00    -0.03  -0.03   0.00     0.00   0.01   0.00
    14   1     0.29   0.28   0.30     0.20   0.21   0.22     0.22   0.01   0.08
    15   1     0.29   0.28  -0.30     0.20   0.21  -0.22     0.22   0.01  -0.08
    16   6    -0.01  -0.01   0.00    -0.01  -0.01   0.00     0.00   0.00   0.00
    17   1     0.00  -0.12   0.00     0.00  -0.10   0.00     0.01  -0.03   0.00
    18   1     0.11   0.15  -0.14     0.09   0.11  -0.10     0.01   0.02  -0.02
    19   1     0.11   0.15   0.14     0.09   0.11   0.10     0.01   0.02   0.02
                     40                     41                     42
                      A                      A                      A
 Frequencies --   1607.0846              3047.7546              3072.6358
 Red. masses --      3.9312                 1.0380                 1.0324
 Frc consts  --      5.9820                 5.6806                 5.7427
 IR Inten    --     12.9975                 4.2172                 3.3112
  Atom  AN      X      Y      Z        X      Y      Z        X      Y      Z
     1   6     0.02  -0.01   0.00     0.00   0.00   0.00     0.04   0.02   0.00
     2   1     0.14   0.04   0.07     0.00   0.00   0.00    -0.33   0.12   0.51
     3   1    -0.11  -0.06   0.00     0.00   0.00   0.00     0.15  -0.47   0.00
     4   1     0.14   0.04  -0.07     0.00   0.00   0.00    -0.33   0.12  -0.51
     5   7    -0.12   0.04   0.00     0.00   0.00   0.00     0.00   0.00   0.00
     6   6    -0.05  -0.12   0.00     0.00   0.00   0.00     0.00   0.00   0.00
     7   1     0.17  -0.09   0.00     0.00  -0.01   0.00     0.00   0.01   0.00
     8   7     0.17   0.14   0.00     0.00   0.00   0.00     0.00   0.00   0.00
     9   6     0.26   0.09   0.00     0.00   0.00   0.00     0.00   0.00   0.00
    10   1     0.00  -0.42   0.00     0.00   0.00   0.00     0.00   0.00   0.00
    11   6    -0.31  -0.05   0.00     0.00   0.00   0.00     0.00   0.00   0.00
    12   1     0.35  -0.39   0.00     0.00   0.00   0.00     0.00   0.00   0.00
    13   6     0.01  -0.04   0.00     0.00   0.01   0.00     0.00   0.00   0.00
    14   1    -0.29  -0.02  -0.10    -0.02  -0.03   0.05     0.00   0.01  -0.01
    15   1    -0.29  -0.02   0.10    -0.02  -0.03  -0.05     0.00   0.01   0.01
    16   6     0.00   0.01   0.00     0.01  -0.05   0.00     0.00   0.00   0.00
    17   1     0.00  -0.02   0.00    -0.41  -0.05   0.00     0.00   0.00   0.00
    18   1     0.01  -0.01   0.01     0.17   0.32   0.53     0.00   0.00   0.00
    19   1     0.01  -0.01  -0.01     0.17   0.32  -0.53     0.00   0.00   0.00
                     43                     44                     45
                      A                      A                      A
 Frequencies --   3077.6803              3113.9853              3134.9898
 Red. masses --      1.0588                 1.1055                 1.1072
 Frc consts  --      5.9089                 6.3162                 6.4116
 IR Inten    --      4.6540                 2.1873                 7.2302
  Atom  AN      X      Y      Z        X      Y      Z        X      Y      Z
     1   6     0.00   0.00   0.00     0.00   0.00   0.00     0.00   0.00   0.00
     2   1    -0.01   0.00   0.01     0.00   0.00   0.00     0.00   0.00   0.00
     3   1     0.00  -0.01   0.00     0.00   0.00   0.00     0.00   0.00   0.00
     4   1    -0.01   0.00  -0.01     0.00   0.00   0.00     0.00   0.00   0.00
     5   7     0.00   0.00   0.00     0.00   0.00   0.00     0.00   0.00   0.00
     6   6     0.00   0.00   0.00     0.00   0.00   0.00     0.00   0.00   0.00
     7   1     0.00   0.00   0.00     0.00   0.00   0.00     0.00   0.00   0.00
     8   7     0.00   0.00   0.00     0.00   0.00   0.00     0.00   0.00   0.00
     9   6     0.00   0.00   0.00     0.00   0.00   0.00     0.00   0.00   0.00
    10   1     0.00   0.00   0.00     0.00   0.00   0.00     0.00   0.00   0.00
    11   6     0.00   0.00   0.00     0.00   0.00   0.00     0.00   0.00   0.00
    12   1     0.00   0.01   0.00     0.00   0.00   0.00     0.00   0.00   0.00
    13   6     0.03   0.06   0.00     0.00   0.00  -0.06     0.00   0.00   0.07
    14   1    -0.20  -0.35   0.58    -0.13  -0.23   0.36     0.15   0.28  -0.44
    15   1    -0.20  -0.35  -0.58     0.13   0.23   0.36    -0.15  -0.28  -0.44
    16   6    -0.01   0.00   0.00     0.00   0.00   0.07     0.00   0.00   0.06
    17   1     0.11   0.01   0.00     0.00   0.00   0.02     0.00   0.00   0.01
    18   1    -0.01  -0.02  -0.03    -0.15  -0.28  -0.44    -0.12  -0.23  -0.36
    19   1    -0.01  -0.02   0.03     0.15   0.28  -0.44     0.12   0.23  -0.36
                     46                     47                     48
                      A                      A                      A
 Frequencies --   3138.6822              3158.6861              3176.1755
 Red. masses --      1.0997                 1.1074                 1.1065
 Frc consts  --      6.3827                 6.5099                 6.5765
 IR Inten    --      2.9302                 0.1720                 0.3627
  Atom  AN      X      Y      Z        X      Y      Z        X      Y      Z
     1   6     0.00   0.00   0.00     0.00   0.00  -0.10     0.05  -0.08   0.00
     2   1     0.00   0.00   0.00    -0.38   0.14   0.57    -0.18   0.06   0.29
     3   1     0.00   0.00   0.00     0.00   0.00  -0.02    -0.26   0.83   0.00
     4   1     0.00   0.00   0.00     0.38  -0.14   0.57    -0.18   0.06  -0.29
     5   7     0.00   0.00   0.00     0.00   0.00   0.00     0.00   0.00   0.00
     6   6     0.00   0.00   0.00     0.00   0.00   0.00     0.00   0.00   0.00
     7   1     0.00   0.00   0.00     0.00   0.00   0.00     0.00  -0.01   0.00
     8   7     0.00   0.00   0.00     0.00   0.00   0.00     0.00   0.00   0.00
     9   6     0.00   0.00   0.00     0.00   0.00   0.00     0.00   0.00   0.00
    10   1     0.00   0.00   0.00     0.00   0.00   0.00     0.01   0.00   0.00
    11   6     0.00   0.00   0.00     0.00   0.00   0.00     0.00   0.00   0.00
    12   1     0.00   0.00   0.00     0.00   0.00   0.00     0.00   0.00   0.00
    13   6     0.00   0.00   0.00     0.00   0.00   0.00     0.00   0.00   0.00
    14   1    -0.02  -0.03   0.05     0.00   0.00   0.00     0.00   0.00   0.00
    15   1    -0.02  -0.03  -0.05     0.00   0.00   0.00     0.00   0.00   0.00
    16   6     0.09   0.03   0.00     0.00   0.00   0.00     0.00   0.00   0.00
    17   1    -0.90  -0.08   0.00     0.00   0.00   0.00     0.00   0.00   0.00
    18   1    -0.06  -0.15  -0.24     0.00   0.00   0.00     0.00   0.00   0.00
    19   1    -0.06  -0.15   0.24     0.00   0.00   0.00     0.00   0.00   0.00
                     49                     50                     51
                      A                      A                      A
 Frequencies --   3281.9693              3299.3685              3306.8657
 Red. masses --      1.0939                 1.1083                 1.1041
 Frc consts  --      6.9425                 7.1085                 7.1138
 IR Inten    --     16.8767                28.9429                12.6530
  Atom  AN      X      Y      Z        X      Y      Z        X      Y      Z
     1   6     0.00   0.00   0.00     0.00   0.00   0.00     0.00   0.00   0.00
     2   1     0.00   0.00   0.00     0.00   0.00   0.00     0.00   0.00   0.00
     3   1     0.00   0.00   0.00     0.00   0.00   0.00     0.00   0.01   0.00
     4   1     0.00   0.00   0.00     0.00   0.00   0.00     0.00   0.00   0.00
     5   7     0.00   0.00   0.00     0.00   0.00   0.00     0.00   0.00   0.00
     6   6     0.00   0.00   0.00     0.01  -0.03   0.00     0.02  -0.08   0.00
     7   1     0.00  -0.01   0.00    -0.09   0.29   0.00    -0.27   0.91   0.00
     8   7     0.00   0.00   0.00     0.00   0.00   0.00     0.00   0.00   0.00
     9   6    -0.05   0.04   0.00     0.06  -0.03   0.00    -0.02   0.01   0.00
    10   1     0.60  -0.38   0.00    -0.56   0.35   0.00     0.18  -0.11   0.00
    11   6    -0.02  -0.06   0.00    -0.03  -0.06   0.00     0.01   0.02   0.00
    12   1     0.28   0.63   0.00     0.28   0.62   0.00    -0.09  -0.19   0.00
    13   6     0.00   0.00   0.00     0.00   0.00   0.00     0.00   0.00   0.00
    14   1     0.00   0.00   0.00     0.00   0.00   0.00     0.00   0.00   0.00
    15   1     0.00   0.00   0.00     0.00   0.00   0.00     0.00   0.00   0.00
    16   6     0.00   0.00   0.00     0.00   0.00   0.00     0.00   0.00   0.00
    17   1     0.00   0.00   0.00     0.00   0.00   0.00     0.00   0.00   0.00
    18   1     0.00   0.00   0.00     0.00   0.00   0.00     0.00   0.00   0.00
    19   1     0.00   0.00   0.00     0.00   0.00   0.00     0.00   0.00   0.00

 -------------------
 - Thermochemistry -
 -------------------
 Temperature   298.150 Kelvin.  Pressure   1.00000 Atm.
 Atom     1 has atomic number  6 and mass  12.00000
 Atom     2 has atomic number  1 and mass   1.00783
 Atom     3 has atomic number  1 and mass   1.00783
 Atom     4 has atomic number  1 and mass   1.00783
 Atom     5 has atomic number  7 and mass  14.00307
 Atom     6 has atomic number  6 and mass  12.00000
 Atom     7 has atomic number  1 and mass   1.00783
 Atom     8 has atomic number  7 and mass  14.00307
 Atom     9 has atomic number  6 and mass  12.00000
 Atom    10 has atomic number  1 and mass   1.00783
 Atom    11 has atomic number  6 and mass  12.00000
 Atom    12 has atomic number  1 and mass   1.00783
 Atom    13 has atomic number  6 and mass  12.00000
 Atom    14 has atomic number  1 and mass   1.00783
 Atom    15 has atomic number  1 and mass   1.00783
 Atom    16 has atomic number  6 and mass  12.00000
 Atom    17 has atomic number  1 and mass   1.00783
 Atom    18 has atomic number  1 and mass   1.00783
 Atom    19 has atomic number  1 and mass   1.00783
 Molecular mass:   111.09222 amu.
 Principal axes and moments of inertia in atomic units:
                           1         2         3
     Eigenvalues --   399.874891297.445141662.77001
           X            1.00000   0.00210   0.00000
           Y           -0.00210   1.00000   0.00000
           Z            0.00000   0.00000   1.00000
 This molecule is an asymmetric top.
 Rotational symmetry number  1.
 Rotational temperatures (Kelvin)      0.21660     0.06676     0.05209
 Rotational constants (GHZ):           4.51326     1.39100     1.08538
 Zero-point vibrational energy     442063.9 (Joules/Mol)
                                  105.65580 (Kcal/Mol)
 Warning -- explicit consideration of   9 degrees of freedom as
           vibrations may cause significant error
 Vibrational temperatures:     48.02    99.44   246.51   271.70   359.04
          (Kelvin)            435.12   512.06   643.72   851.86   909.95
                              919.48  1018.39  1096.07  1150.70  1217.19
                             1257.27  1399.61  1490.71  1511.78  1574.97
                             1586.61  1616.20  1643.12  1662.97  1685.86
                             1838.45  1882.96  1913.80  1950.09  2016.47
                             2031.69  2063.47  2085.70  2103.12  2122.55
                             2128.74  2143.56  2146.62  2306.18  2312.23
                             4385.03  4420.83  4428.09  4480.32  4510.55
                             4515.86  4544.64  4569.80  4722.02  4747.05
                             4757.84
 
 Zero-point correction=                           0.168373 (Hartree/Particle)
 Thermal correction to Energy=                    0.176771
 Thermal correction to Enthalpy=                  0.177715
 Thermal correction to Gibbs Free Energy=         0.134490
 Sum of electronic and zero-point Energies=           -344.411938
 Sum of electronic and thermal Energies=              -344.403541
 Sum of electronic and thermal Enthalpies=            -344.402596
 Sum of electronic and thermal Free Energies=         -344.445822
 
                     E (Thermal)             CV                S
                      KCal/Mol        Cal/Mol-Kelvin    Cal/Mol-Kelvin
 Total                  110.925             30.325             90.975
 Electronic               0.000              0.000              0.000
 Translational            0.889              2.981             40.032
 Rotational               0.889              2.981             28.247
 Vibrational            109.148             24.363             22.697
 Vibration     1          0.594              1.983              5.618
 Vibration     2          0.598              1.969              4.178
 Vibration     3          0.626              1.878              2.421
 Vibration     4          0.633              1.855              2.239
 Vibration     5          0.662              1.764              1.734
 Vibration     6          0.694              1.669              1.403
 Vibration     7          0.731              1.563              1.140
 Vibration     8          0.807              1.367              0.804
 Vibration     9          0.950              1.049              0.463
                       Q            Log10(Q)             Ln(Q)
 Total Bot       0.137749D-61        -61.860910       -142.440010
 Total V=0       0.384802D+16         15.585238         35.886336
 Vib (Bot)       0.900202D-75        -75.045660       -172.799018
 Vib (Bot)    1  0.620266D+01          0.792578          1.824979
 Vib (Bot)    2  0.298444D+01          0.474863          1.093413
 Vib (Bot)    3  0.117573D+01          0.070306          0.161886
 Vib (Bot)    4  0.106028D+01          0.025422          0.058537
 Vib (Bot)    5  0.782278D+00         -0.106639         -0.245545
 Vib (Bot)    6  0.627980D+00         -0.202054         -0.465247
 Vib (Bot)    7  0.516404D+00         -0.287011         -0.660866
 Vib (Bot)    8  0.384093D+00         -0.415563         -0.956869
 Vib (Bot)    9  0.254254D+00         -0.594733         -1.369422
[...]
 816,0.00533083,-0.00142082,-0.00091369,0.28609654,0.06436058,-0.067536
 62,-0.02762063,-0.02070126,0.00766059,0.00815514,0.02406060,-0.0052496
 0,-0.00903998,-0.07313872,0.06679733,0.10100331,-0.03169992,-0.0892829
 7,0.01500479,-0.00680685,-0.00533800,0.01338329,-0.00179371,-0.0046748
 9,-0.09348552,0.02837128,0.09563735,-0.12253752,0.01828245,-0.07020916
 ,0.00395112,0.00202215,-0.00028560,-0.00647356,0.00173613,-0.00460309,
 -0.02068383,0.00509609,-0.03363244,0.43399373,0.01983338,-0.10702363,0
 .00488625,0.02259984,-0.00160502,0.02083140,-0.02259431,0.00714077,-0.
 02486238,0.00905125,-0.00222749,0.01277310,-0.15096525,0.64806484,-0.0
 6950049,0.00288202,-0.15010876,-0.02126340,0.00202579,-0.02082001,-0.0
 1572016,0.00655174,-0.01959853,-0.00144391,-0.00009538,0.00443800,0.29
 700700,0.03253472,0.54886802,-0.01396534,0.01293592,-0.00477282,0.0010
 1098,0.00011706,0.00237040,0.00121534,0.00054600,0.00104942,-0.0003031
 2,0.00135062,-0.00147015,-0.14521986,0.11316804,-0.04858460,0.36525465
 ,0.00395896,0.00465112,0.00983661,-0.00131228,0.00014410,-0.00284566,-
 0.00124745,0.00104201,-0.00140621,-0.00319211,0.00008018,-0.00310971,0
 .11569860,-0.30667256,0.04005924,-0.09177287,0.83160857,-0.00887871,0.
 02142796,-0.00735350,-0.00245360,0.00099066,-0.00120332,0.00022969,0.0
 0090888,0.00130781,0.00062440,0.00076486,0.00017324,-0.04742409,0.0367
 8678,-0.11194308,0.25609024,0.20024129,0.55661512,-0.00064245,-0.00032
 525,0.00256243,0.00014076,-0.00032471,-0.00007699,0.00000728,-0.000019
 40,-0.00048827,-0.00012007,0.00025641,-0.00016426,0.00335819,0.0134466
 9,0.01007604,-0.04311757,-0.01770106,-0.02894071,0.03822934,-0.0013719
 3,0.00012611,-0.00046000,0.00011032,0.00001587,0.00009541,0.00044135,0
 .00032972,0.00054737,0.00000418,0.00021696,0.00007536,-0.00478344,-0.0
 1423408,-0.01282894,-0.01744129,-0.28488424,-0.14043701,0.01746959,0.2
 9413033,0.00208388,0.00089074,0.00035555,-0.00018466,0.00019077,-0.000
 05502,-0.00027774,-0.00004688,-0.00000128,0.00002715,-0.00025601,0.000
 00492,0.00174119,0.01071115,0.00746110,-0.02882253,-0.14077631,-0.1285
 4737,0.02989989,0.14731329,0.12721455,0.00344439,0.00528221,0.00117710
 ,-0.00180457,-0.00008509,-0.00128626,-0.00024203,-0.00021238,0.0000216
 9,-0.00074564,-0.00068540,-0.00123662,-0.03446265,0.04215334,-0.043517
 20,-0.17222456,-0.01074587,-0.14021841,0.00149439,-0.00027446,0.001563
 01,0.42555192,0.00170560,-0.00343847,-0.00138476,0.00030159,0.00022811
 ,-0.00028742,-0.00032439,0.00021500,-0.00016786,-0.00036876,-0.0003547
 9,0.00054100,0.01780580,-0.02760195,0.00389610,-0.01260534,-0.12506030
 ,-0.04262229,-0.01736570,0.00438797,-0.02049919,-0.13640497,0.62605342
 ,-0.00045743,0.00323598,0.00528907,-0.00097290,-0.00066022,-0.00176690
 ,-0.00002972,-0.00002331,-0.00038252,-0.00122796,0.00000458,-0.0022430
 5,-0.05464854,0.03532611,-0.04023699,-0.14106937,-0.04021811,-0.267956
 65,-0.00625172,0.00156639,-0.00716702,0.28971521,0.04018785,0.54531350
 ,-0.00587252,-0.01736089,-0.01263579,0.00133464,-0.00025475,0.00076901
 ,-0.00154352,0.00118015,-0.00227024,0.00116474,-0.00069617,0.00032071,
 -0.10046612,-0.00759247,-0.04936599,0.01152255,-0.00510157,-0.00702932
 ,-0.00015649,0.00358066,-0.00246872,-0.00602665,0.05843523,0.00222402,
 0.39530155,-0.00438981,0.01234749,0.00099570,0.00056819,0.00050058,0.0
 0117753,0.00287443,-0.00017437,0.00334298,0.00096675,0.00050723,0.0006
 6332,-0.01844044,-0.20094270,-0.08599025,0.02651115,-0.08314004,-0.010
 70822,0.00297781,-0.00090516,0.00204954,0.02385261,-0.05860051,-0.0019
 0639,-0.23769288,0.80815428,-0.00670820,-0.01575189,-0.01809182,0.0009
 2904,-0.00089751,0.00170156,-0.00149470,0.00115558,-0.00077012,0.00129
 754,-0.00047170,0.00186536,-0.05432406,-0.07198204,-0.16796751,0.00742
 179,-0.05152527,0.00119280,-0.00274358,0.00282795,0.00077182,-0.013587
 55,0.04274317,0.01493928,0.24142900,0.00577939,0.43851487,0.00015192,-
 0.00013159,0.00118185,0.00015571,-0.00011440,0.00017446,-0.00015431,0.
 00002989,0.00009206,-0.00036056,-0.00004320,0.00000292,0.00397971,-0.0
 1388246,0.00197915,0.00064848,-0.00116339,-0.00391387,0.00144958,0.000
 00067,-0.00048931,0.00088837,0.00282139,-0.00471321,-0.08205119,0.1146
 1943,-0.01799078,0.07560399,0.00019794,0.00042182,0.00081870,-0.000114
 38,0.00005792,-0.00020669,-0.00009842,0.00012000,0.00002609,-0.0003821
 1,0.00005318,-0.00020165,0.00650905,-0.01319806,0.00349910,-0.00141677
 ,0.00060368,-0.00304714,0.00065802,-0.00007295,-0.00001957,0.00122308,
 0.00195653,-0.00005756,0.10924508,-0.32439582,0.00535263,-0.11463929,0
 .33501162,0.00133308,0.00039425,0.00109036,0.00006182,0.00013055,-0.00
 043856,0.00003333,0.00019148,-0.00008420,-0.00003992,-0.00010191,0.000
 08270,0.01130051,-0.02282970,0.00168635,-0.00403010,-0.00271957,-0.003
 17907,-0.00018875,-0.00086875,0.00118798,-0.00544283,0.00200555,-0.000
 57325,-0.02044850,0.01229380,-0.04831943,0.01732878,-0.00474878,0.0417
 9906,0.00267536,-0.00085402,0.00062113,-0.00038309,0.00042990,-0.00079
 545,-0.00014818,0.00041561,-0.00071994,-0.00040546,0.00008034,-0.00024
 808,-0.01740985,-0.02948086,-0.05285914,0.00645711,-0.00225135,-0.0124
 2260,-0.00062476,0.00084545,-0.00431092,-0.09324987,0.01883308,-0.0264
 1426,-0.21355617,0.09967234,-0.14551588,0.00026577,-0.00114001,-0.0009
 5228,0.43260883,-0.00000555,-0.00655495,-0.00386604,0.00080455,0.00002
 664,0.00120892,-0.00063379,0.00039340,-0.00089325,0.00109644,0.0000093
 4,0.00116979,0.00487166,0.01773618,0.00841094,-0.03466315,-0.04118495,
 -0.07056463,0.00136538,0.00228706,0.00142928,0.02880895,-0.25048724,-0
 .04708173,0.09309434,-0.16146612,0.07635421,0.01249922,-0.00037138,0.0
 1569314,-0.06234931,0.55302084,0.00101013,-0.00496347,0.00092717,0.000
 08633,0.00026251,-0.00005027,-0.00119955,0.00046115,-0.00078176,-0.000
 49471,0.00032107,-0.00000977,-0.03715712,-0.03593570,-0.05130968,-0.02
 723775,-0.02871968,-0.03301549,-0.00407394,0.00075777,-0.00189836,-0.0
 2185182,-0.05996658,-0.12175329,-0.14852491,0.08484586,-0.21853882,0.0
 0528240,-0.00191615,0.00654432,0.36951668,0.11547165,0.65424669,0.0008
 6843,-0.00049050,-0.00064136,-0.00009424,-0.00006810,-0.00008962,-0.00
 019955,0.00007897,-0.00017086,0.00007293,0.00004870,0.00016080,0.00119
 723,0.00265348,-0.00427597,0.00149319,0.00293571,-0.00085487,0.0013690
 6,0.00030555,-0.00046584,0.00335700,0.00311680,0.00881959,-0.00155996,
 -0.00965683,-0.00715534,-0.00141817,-0.00028912,0.00116225,-0.11520782
 ,-0.05034576,-0.13628980,0.11042760,-0.00001738,0.00121281,-0.00001206
 ,-0.00005362,-0.00003764,-0.00007324,0.00023695,-0.00004725,0.00030206
 ,-0.00000229,0.00000083,0.00002156,0.00416517,-0.00008627,0.00284761,0
 .00332087,-0.00585136,0.00015248,-0.00041197,0.00048101,-0.00115218,-0
 .01696504,-0.00847972,-0.02469835,0.00405706,0.01183584,0.01039335,-0.
 00071025,-0.00032579,0.00004015,-0.04521687,-0.09506915,-0.08928522,0.
 05240480,0.09516526,-0.00042473,-0.00062379,0.00035700,0.00008424,0.00
 004052,0.00009590,-0.00009901,0.00009901,-0.00012156,-0.00002999,-0.00
 004438,-0.00010994,-0.00358384,0.00089299,0.00122887,-0.00067840,-0.00
 034450,0.00216053,-0.00079414,-0.00022508,0.00070979,-0.00036158,0.001
 23326,-0.00227333,-0.00088395,-0.00731323,-0.00392383,0.00096917,0.000
 58436,-0.00090136,-0.13394720,-0.09590907,-0.24428617,0.13871522,0.101
 32058,0.24698861,0.00182133,0.00073463,-0.00186557,-0.00035995,-0.0000
 4012,-0.00032156,-0.00001177,-0.00001727,0.00006812,0.00026577,-0.0000
 3011,0.00057309,0.00243093,-0.00069621,-0.00242659,-0.01396736,0.00731
 733,-0.00733967,-0.00056352,-0.00091795,0.00180483,-0.10546978,0.03319
 923,-0.03962086,0.00287974,-0.00340031,-0.00001802,0.00112624,0.000256
 27,-0.00004524,-0.00150555,0.00745402,0.00495352,0.00011106,-0.0011343
 2,0.00028557,0.54715425,0.00114067,0.00136975,0.00048744,-0.00047065,-
 0.00002517,-0.00045858,-0.00001643,0.00000339,0.00001248,-0.00015618,0
 .00001123,-0.00021431,-0.00460311,0.00477112,-0.00561839,0.00196406,0.
 01112506,0.01022306,-0.00123905,-0.00008809,-0.00059580,0.03099325,-0.
 12607926,0.01119835,-0.00180814,-0.00347976,-0.00469865,0.00062714,0.0
 0019257,0.00032608,0.01797876,-0.02160178,0.01457799,-0.00048980,0.001
 70173,0.00037721,0.07185095,0.47128774,-0.00167914,-0.00003587,0.00134
 154,0.00026046,0.00003381,0.00018225,0.00006840,0.00001135,0.00002284,
 -0.00026404,0.00001192,-0.00047991,-0.00421374,-0.00057275,-0.00163812
 ,-0.00978404,0.01713331,-0.01049337,0.00165815,-0.00018028,-0.00022832
 ,-0.04062998,0.01404607,-0.10907209,0.00070899,-0.00675428,-0.00048215
 ,0.00012489,-0.00015359,0.00134335,0.00976526,0.00098450,0.01035625,0.
 00058103,-0.00045313,0.00003021,-0.04705660,0.02978280,0.56187905,-0.0
 0033835,0.00004843,0.00048704,0.00002045,0.00000080,0.00001288,0.00001
 070,0.00000388,-0.00001515,-0.00009445,0.00002513,-0.00018658,-0.00165
 540,0.00069774,-0.00052697,0.00122369,0.00255998,-0.00019600,0.0001834
 7,0.00009578,-0.00024148,0.00145454,0.00673000,-0.02899568,-0.00040987
 ,-0.00037497,-0.00053309,-0.00005757,-0.00000909,0.00006302,0.00105729
 ,-0.00101721,-0.00015983,0.00015460,-0.00006764,0.00014716,-0.07895918
 ,-0.00759431,0.09039367,0.08305636,0.00028550,-0.00007681,-0.00057370,
 -0.00000678,0.00001323,0.00001665,0.00000495,0.00000163,0.00000282,0.0
 0012155,0.00001589,0.00020286,0.00152127,-0.00201279,0.00072620,-0.002
 71947,-0.00176630,-0.00143455,0.00004902,-0.00011624,0.00007063,0.0006
 7960,-0.00630654,0.02675064,0.00055769,0.00050138,0.00082646,0.0000487
 1,0.00001381,-0.00008372,0.00008094,0.00160923,0.00080460,-0.00014497,
 -0.00037885,0.00000415,-0.00514685,-0.04688390,0.00913442,-0.00042084,
 0.05747206,-0.00014654,0.00006441,0.00016113,0.00000244,0.00000027,0.0
 0001117,0.00002906,0.00000144,-0.00000597,-0.00001490,0.00000594,-0.00
 007403,-0.00028153,0.00049582,0.00018108,0.00145073,0.00189374,0.00071
 570,0.00016357,-0.00000381,-0.00011112,-0.00273902,0.00546652,-0.01719
 978,-0.00093808,0.00011882,-0.00058084,0.00000067,-0.00000527,-0.00000
 150,0.00024938,-0.00171767,0.00062433,0.00032411,0.00040394,-0.0000799
 8,0.08283127,0.01321287,-0.28592624,-0.08563806,-0.01661564,0.31098622
 ,0.00026935,0.00024635,-0.00005632,-0.00009798,-0.00002283,-0.00008167
 ,-0.00000725,-0.00001043,0.00001882,0.00000282,-0.00000495,0.,-0.00042
 521,0.00122627,-0.00019837,-0.00004906,0.00121349,0.00302245,-0.000108
 46,-0.00004378,0.00006913,-0.02173991,-0.00022448,-0.00726965,-0.00052
 033,0.00013310,-0.00115174,0.00002611,0.00000382,-0.00000472,0.0010638
 5,-0.00167205,-0.00055105,-0.00035567,0.00028731,0.00043151,-0.2742306
 9,-0.09633605,0.00645350,-0.00790026,-0.00449792,0.00062340,0.29916274
 ,-0.00060056,-0.00039668,0.00008677,0.00017910,0.00001969,0.00019434,0
 .00000448,-0.00000153,0.00001025,0.00000876,0.00001889,-0.00000463,0.0
 0126166,-0.00207063,0.00138185,0.00035692,-0.00099581,-0.00302516,0.00
 016581,-0.00008799,0.00001033,0.02907856,0.00419766,0.00609490,0.00035
 491,0.00062301,0.00073393,-0.00010378,-0.00004613,0.00003317,0.0003887
 7,0.00148569,0.00042927,0.00000779,-0.00013495,-0.00015356,-0.10315013
 ,-0.08852885,0.00174386,-0.00111750,0.00010426,-0.00059833,0.09935579,
 0.10104013,0.00029779,0.00023504,-0.00012674,-0.00011670,0.00000610,-0
 .00007431,-0.00001805,-0.00000889,0.00001504,0.00001360,0.00000386,0.0
 0002314,-0.00005083,0.00050417,-0.00099079,-0.00142933,0.00156925,0.00
 121667,-0.00026132,-0.00012605,0.00015241,-0.02289444,-0.00264791,-0.0
 0451113,-0.00021902,-0.00005002,-0.00059184,0.00003451,0.00001970,-0.0
 0002531,0.00048500,-0.00112541,0.00074162,0.00009064,-0.00009352,0.000
 18693,0.01202073,0.00330181,-0.04901365,0.02769416,0.01160648,0.000944
 07,-0.00163360,-0.00486404,0.05131652,0.00002220,-0.00013003,0.0002849
 3,-0.00000378,-0.00001893,-0.00001539,0.00002472,0.00001951,-0.0000161
 0,-0.00002318,0.00004411,-0.00003650,-0.00002433,0.00063235,0.00063136
 ,0.00053349,0.00083374,0.00044379,0.00007075,0.00107265,-0.00036092,-0
 .00275027,0.02704416,0.00958767,-0.00015357,0.00182752,-0.00012789,-0.
 00017040,0.00005468,-0.00026544,-0.00191099,0.00036206,-0.00333458,-0.
 00024054,0.00007132,0.00020297,-0.08010015,-0.01455687,-0.00434580,0.0
 0062112,0.01054790,0.00464787,0.00284638,-0.02757144,-0.01375987,0.576
 40385,-0.00014292,0.00013684,-0.00000805,-0.00000482,-0.00002563,-0.00
 000685,-0.00000947,0.00000058,-0.00003278,-0.00000046,0.00000040,-0.00
 002372,-0.00084025,0.00034953,-0.00078971,0.00056406,0.00055355,0.0007
 5964,0.00019547,-0.00057010,-0.00034399,0.00548234,-0.02854629,-0.0057
 0259,-0.00008986,-0.00124257,-0.00095633,0.00007827,-0.00003164,0.0000
 6228,0.00173395,-0.00006167,0.00184826,-0.00004420,-0.00017626,0.00002
 893,-0.00652344,-0.17318110,-0.05017627,-0.00013617,0.00133290,-0.0008
 3190,-0.00017416,-0.01245814,-0.00671200,0.00293242,0.49136417,0.00027
 996,0.00000804,0.00012100,-0.00005606,0.00002422,-0.00002658,-0.000029
 38,0.00000480,0.00000824,-0.00001082,-0.00001398,-0.00003322,-0.000041
 44,0.00110926,0.00016332,0.00031842,0.00110830,0.00140408,-0.00076220,
 0.00078976,0.00010746,-0.00027211,0.02214347,0.00917812,-0.00100571,0.
 00152140,-0.00000923,-0.00025354,0.00003127,-0.00025959,-0.00270709,0.
 00007436,-0.00266381,0.00014974,0.00018021,-0.00009513,-0.00067086,-0.
 06054938,-0.11044932,-0.00160800,-0.02993813,-0.01114594,0.00013897,0.
 00080814,0.00042142,0.00251473,-0.03469135,0.56288201,0.00003657,-0.00
 001436,-0.00000933,-0.00000300,0.00000599,0.00000101,0.00000490,-0.000
 00431,0.00001336,0.00000215,-0.00000250,0.00000499,0.00024023,-0.00004
 009,0.00003938,-0.00018976,-0.00021490,-0.00028797,-0.00015998,-0.0000
 4181,0.00032832,0.00122681,-0.00171298,0.00017882,0.00001643,0.0000303
 0,0.00007063,-0.00004316,-0.00003746,0.00007908,0.00038245,0.00005171,
 -0.00008380,0.00000037,0.00001797,-0.00001840,-0.00113297,-0.00059408,
 0.00111944,0.00012465,-0.00002862,0.00002855,0.00045153,0.00006896,0.0
 0035280,-0.14786142,0.10230357,-0.08917005,0.15698884,-0.00003252,-0.0
 0001443,-0.00006628,0.00001302,0.00000452,0.00001022,0.00001038,-0.000
 00155,0.00001593,0.00000649,-0.00000145,0.00001847,0.00023351,-0.00013
 962,0.00014691,-0.00091515,0.00009473,-0.00111827,0.00001706,-0.000034
 00,0.00020339,-0.00060924,-0.00611485,-0.00380282,0.00015344,-0.000610
 54,-0.00006689,0.00006879,0.00000708,0.00014512,0.00100735,0.00016536,
 0.00116052,0.00001124,-0.00001495,-0.00000023,0.01811890,-0.01711367,0
 .01658178,0.00024957,0.00100175,-0.00002822,-0.00032288,0.00079236,0.0
 0062007,0.09998716,-0.14207605,0.08362030,-0.10952680,0.15613197,-0.00
 001794,-0.00004324,-0.00000393,0.00001139,0.00000166,0.00000798,0.0000
 2017,-0.00000317,0.00001752,0.00000225,0.00000638,0.00000876,0.0001641
 9,-0.00020465,0.00031451,-0.00060794,-0.00021455,-0.00092597,0.0003555
 1,0.00012665,0.00008762,0.00068368,-0.00522909,-0.00102682,0.00012766,
 -0.00022796,0.00003277,0.00012727,0.00000856,0.00005072,0.00035243,-0.
 00007072,0.00088909,-0.00002123,0.00000734,-0.00000370,0.00967748,-0.0
 0758289,0.00681941,0.00037764,0.00043707,0.00058789,-0.00004799,0.0003
 0053,0.00047024,-0.09023004,0.08661449,-0.11949520,0.09600681,-0.09009
 675,0.12663789,0.00004510,-0.00002257,-0.00000960,-0.00000574,0.000005
 49,0.00000805,0.00000405,-0.00000685,0.00001297,0.00000278,-0.00000121
 ,-0.00000026,0.00027279,-0.00014301,0.00016149,-0.00034255,-0.00019318
 ,-0.00098113,0.00008659,0.00041926,0.00011334,0.00093178,-0.00071912,0
 .00026904,0.00008173,0.00005899,0.00022745,-0.00001170,-0.00000684,0.0
 0007405,-0.00004978,0.00039223,0.00019967,-0.00000740,0.00003262,-0.00
 001638,0.00141003,0.00197405,-0.00086055,0.00043906,-0.00032436,-0.000
 36448,0.00130077,0.00081844,0.00001740,-0.27009704,-0.09976635,0.00749
 147,-0.01692098,-0.00816967,0.00162383,0.29072379,0.00002675,-0.000041
 08,0.00004069,0.00000496,0.00001231,0.00000122,0.00000187,-0.00000964,
 0.00002317,0.00000012,-0.00000077,0.00000599,0.00029471,-0.00012984,0.
 00023076,0.00014660,-0.00032425,0.00019087,0.00007163,-0.00068632,0.00
 081595,-0.00096777,0.00183544,0.00000388,0.00002480,0.00029399,0.00010
 263,-0.00002137,-0.00000459,0.00005155,0.00018582,0.00021754,-0.000235
 63,-0.00008869,0.00008793,0.00006323,-0.02884157,-0.01382107,0.0004153
 7,0.00043746,0.00104214,0.00038898,0.00078767,-0.00477316,-0.00279674,
 -0.09722647,-0.08843584,0.00193486,0.01741089,0.00849946,-0.00130136,0
 .10793933,0.09744660,-0.00007018,0.00001837,-0.00002643,0.00001435,-0.
 00001469,0.00000961,-0.00000350,0.00000944,-0.00001192,0.00000360,-0.0
 0000793,0.00000668,0.00001459,-0.00019434,-0.00002728,0.00036059,0.000
 35644,0.00024711,-0.00004412,0.00067161,-0.00031853,0.00065619,0.00060
 034,0.00061900,0.00006108,-0.00000150,0.00004527,-0.00001833,-0.000010
 24,-0.00000353,0.00004949,0.00005596,-0.00020215,-0.00003949,0.0000181
 7,0.00005331,-0.01569147,-0.00510331,-0.00116946,-0.00062643,0.0005258
 8,0.00038759,0.00045061,-0.00318561,-0.00049930,0.00951913,0.00219949,
 -0.04784614,-0.01472304,-0.00756442,0.00010616,-0.00685376,-0.00037428
 ,0.04740949,-0.00003695,0.00005287,-0.00007274,0.00000536,-0.00000570,
 0.00000130,-0.00002486,0.00000616,-0.00000658,0.00001200,-0.00001906,0
 .00000651,-0.00006559,-0.00006774,-0.00021162,0.00001971,0.00037823,0.
 00053038,-0.00089610,0.00052918,-0.00000862,0.00036675,-0.00026714,0.0
 0087695,0.00001499,-0.00013740,-0.00002462,-0.00002881,-0.00001445,-0.
 00001814,-0.00005915,-0.00011375,-0.00008986,0.00003187,-0.00001469,0.
 00000177,-0.00089843,0.00133577,-0.00229989,0.00106916,-0.00060733,-0.
 00022845,0.00031125,0.00049346,-0.00062344,-0.07718684,-0.00555799,0.0
 8569397,0.00683633,-0.00030067,-0.01860516,-0.00786328,-0.00018674,0.0
 2694068,0.07839260,0.00003933,0.00000055,-0.00001363,0.00000715,-0.000
 00035,0.00000155,0.00001047,0.00000170,0.00000163,-0.00000302,-0.00000
 132,0.00001176,0.00013423,-0.00011779,0.00012970,0.00055272,-0.0000232
 0,0.00051080,0.00071426,-0.00029585,0.00000487,-0.00060374,0.00219578,
 -0.00021760,-0.00008664,0.00019379,0.00008097,0.00001622,0.00000813,-0
 .00001469,-0.00035988,-0.00015403,0.00008180,0.00005490,0.00011678,-0.
 00003040,0.01096696,0.00034006,-0.03155302,-0.00011105,-0.00556681,-0.
 00225190,0.00005573,0.00121217,0.00055810,-0.00592587,-0.04693268,0.01
 183443,-0.00767149,-0.00057612,0.01747171,-0.00228725,-0.00120885,0.01
 200061,0.00449697,0.05080804,0.00000373,-0.00003674,0.00001383,0.00000
 432,-0.00000352,0.00000369,0.00001576,-0.00000159,0.00000566,0.0000075
 4,0.00000687,0.00000564,0.00022803,-0.00027019,0.00029952,-0.00057457,
 -0.00031860,-0.00041524,0.00007442,0.00035837,0.00027382,0.00022096,-0
 .00005823,0.00082386,0.00014978,0.00016352,0.00021187,0.00008090,0.000
 02621,0.00000097,-0.00014652,0.00037577,0.00018012,0.00000100,0.000080
 24,-0.00001614,0.00284183,0.00132121,-0.01302226,-0.00044833,-0.002463
 11,0.00052621,-0.00021329,0.00000399,0.00034501,0.08466010,0.00876245,
 -0.28226149,0.00606941,0.00022117,-0.01457494,-0.00111258,0.00043887,0
 .00122052,-0.09186247,-0.00860669,0.30637935\\-0.00000138,0.00000146,0
 .00000042,-0.00000026,0.00000152,0.00000012,0.00000037,0.00000158,0.00
 000054,0.00000096,0.00000132,0.00000040,0.00000140,0.00000459,0.000003
 82,0.00000306,-0.00000166,-0.00000063,-0.00000127,0.00000022,0.0000009
 2,-0.00000123,0.00000051,0.00000101,-0.00000009,-0.00000050,-0.0000028
 6,0.00000039,0.00000045,0.00000243,-0.00000218,-0.00000435,0.00000058,
 0.00000174,0.00000001,-0.00000078,0.00000209,-0.00000479,-0.00000114,-
 0.00000028,-0.00000039,-0.00000072,0.00000064,-0.00000148,-0.00000008,
 -0.00000206,0.00000463,0.00000158,-0.00000072,-0.00000120,-0.00000191,
 -0.00000077,-0.00000125,-0.00000148,-0.00000042,-0.00000065,-0.0000022
 1\\\@


 AND ALL THIS SCIENCE I DON'T UNDERSTAND
 IT'S JUST MY JOB FIVE DAYS A WEEK

                           -- ELTON JOHN, "ROCKET MAN"
 Job cpu time:       0 days  0 hours 37 minutes 32.1 seconds.
 File lengths (MBytes):  RWF=    128 Int=      0 D2E=      0 Chk=      8 Scr=      1
 Normal termination of Gaussian 09 at Wed Feb  3 07:25:16 2021.
