 Entering Gaussian System, Link 0=g09
 Initial command:
 /opt/g09/l1.exe "/scratch/data/florian/gaussian_scratch/Gau-16305.inp" -scrdir="/scratch/data/florian/gaussian_scratch/"
 Entering Link 1 = /opt/g09/l1.exe PID=     16307.
  
 Copyright (c) 1988,1990,1992,1993,1995,1998,2003,2009,2013,
            Gaussian, Inc.  All Rights Reserved.
  
 This is part of the Gaussian(R) 09 program.  It is based on
 the Gaussian(R) 03 system (copyright 2003, Gaussian, Inc.),
 the Gaussian(R) 98 system (copyright 1998, Gaussian, Inc.),
 the Gaussian(R) 94 system (copyright 1995, Gaussian, Inc.),
 the Gaussian 92(TM) system (copyright 1992, Gaussian, Inc.),
 the Gaussian 90(TM) system (copyright 1990, Gaussian, Inc.),
 the Gaussian 88(TM) system (copyright 1988, Gaussian, Inc.),
 the Gaussian 86(TM) system (copyright 1986, Carnegie Mellon
 University), and the Gaussian 82(TM) system (copyright 1983,
 Carnegie Mellon University). Gaussian is a federally registered
 trademark of Gaussian, Inc.
  
 This software contains proprietary and confidential information,
 including trade secrets, belonging to Gaussian, Inc.
  
 This software is provided under written license and may be
 used, copied, transmitted, or stored only in accord with that
 written license.
  
 The following legend is applicable only to US Government
 contracts under FAR:
  
                    RESTRICTED RIGHTS LEGEND
  
 Use, reproduction and disclosure by the US Government is
 subject to restrictions as set forth in subparagraphs (a)
 and (c) of the Commercial Computer Software - Restricted
 Rights clause in FAR 52.227-19.
  
 Gaussian, Inc.
 340 Quinnipiac St., Bldg. 40, Wallingford CT 06492
  
  
 ---------------------------------------------------------------
 Warning -- This program may not be used in any manner that
 competes with the business of Gaussian, Inc. or will provide
 assistance to any competitor of Gaussian, Inc.  The licensee
 of this program is prohibited from giving any competitor of
 Gaussian, Inc. access to this program.  By using this program,
 the user acknowledges that Gaussian, Inc. is engaged in the
 business of creating and licensing software in the field of
 computational chemistry and represents and warrants to the
 licensee that it is not a competitor of Gaussian, Inc. and that
 it will not use this program in any manner prohibited above.
 ---------------------------------------------------------------
  

 Cite this work as:
 Gaussian 09, Revision D.01,
 M. J. Frisch, G. W. Trucks, H. B. Schlegel, G. E. Scuseria, 
 M. A. Robb, J. R. Cheeseman, G. Scalmani, V. Barone, B. Mennucci, 
 G. A. Petersson, H. Nakatsuji, M. Caricato, X. Li, H. P. Hratchian, 
 A. F. Izmaylov, J. Bloino, G. Zheng, J. L. Sonnenberg, M. Hada, 
 M. Ehara, K. Toyota, R. Fukuda, J. Hasegawa, M. Ishida, T. Nakajima, 
 Y. Honda, O. Kitao, H. Nakai, T. Vreven, J. A. Montgomery, Jr., 
 J. E. Peralta, F. Ogliaro, M. Bearpark, J. J. Heyd, E. Brothers, 
 K. N. Kudin, V. N. Staroverov, T. Keith, R. Kobayashi, J. Normand, 
 K. Raghavachari, A. Rendell, J. C. Burant, S. S. Iyengar, J. Tomasi, 
 M. Cossi, N. Rega, J. M. Millam, M. Klene, J. E. Knox, J. B. Cross, 
 V. Bakken, C. Adamo, J. Jaramillo, R. Gomperts, R. E. Stratmann, 
 O. Yazyev, A. J. Austin, R. Cammi, C. Pomelli, J. W. Ochterski, 
 R. L. Martin, K. Morokuma, V. G. Zakrzewski, G. A. Voth, 
 P. Salvador, J. J. Dannenberg, S. Dapprich, A. D. Daniels, 
 O. Farkas, J. B. Foresman, J. V. Ortiz, J. Cioslowski, 
 and D. J. Fox, Gaussian, Inc., Wallingford CT, 2013.
 
 ******************************************
 Gaussian 09:  ES64L-G09RevD.01 24-Apr-2013
                19-Nov-2020 
 ******************************************
 %chk=oac.chk
 %mem=4GB
 %NPROCSHARED=3
 Will use up to    3 processors via shared memory.
 ---------------------------------------------------------
 # b3lyp/cc-pvdz opt=(tight, maxcycle=200) density=current
 ---------------------------------------------------------
 1/6=200,7=10,14=-1,18=20,19=15,26=3,38=1/1,3;
 2/9=110,12=2,17=6,18=5,40=1/2;
 3/5=16,11=2,16=1,25=1,30=1,71=1,74=-5/1,2,3;
 4//1;
 5/5=2,38=5/2;
 6/7=2,8=2,9=2,10=2,22=-1,28=1/1;
 7//1,2,3,16;
 1/6=200,7=10,14=-1,18=20,19=15,26=3/3(2);
 2/9=110/2;
 99//99;
 2/9=110/2;
 3/5=16,11=2,16=1,25=1,30=1,71=1,74=-5/1,2,3;
 4/5=5,16=3,69=1/1;
 5/5=2,38=5/2;
 7//1,2,3,16;
 1/6=200,7=10,14=-1,18=20,19=15,26=3/3(-5);
 2/9=110/2;
 6/7=2,8=2,9=2,10=2,19=2,22=-1,28=1/1;
 99/9=1/99;
 -----------------
 opt of oac coords
 -----------------
 Symbolic Z-matrix:
 Charge = -1 Multiplicity = 1
 C                    -0.50524   0.45348  -0.00113 
 H                    -0.86032   0.8527    0.92593 
 H                    -0.8627   -0.54821  -0.11834 
 H                    -0.8627    1.05661  -0.80943 
 C                     1.00334   0.45254  -0.00331 
 O                     1.55696   0.90244   1.04144 
 O                     1.55338   0.00195  -1.04965 
 

 GradGradGradGradGradGradGradGradGradGradGradGradGradGradGradGradGradGrad
 Berny optimization.
 Initialization pass.
                           ----------------------------
                           !    Initial Parameters    !
                           ! (Angstroms and Degrees)  !
 --------------------------                            --------------------------
 ! Name  Definition              Value          Derivative Info.                !
 --------------------------------------------------------------------------------
 ! R1    R(1,2)                  1.07           estimate D2E/DX2                !
 ! R2    R(1,3)                  1.07           estimate D2E/DX2                !
 ! R3    R(1,4)                  1.07           estimate D2E/DX2                !
 ! R4    R(1,5)                  1.5086         estimate D2E/DX2                !
 ! R5    R(5,6)                  1.2651         estimate D2E/DX2                !
 ! R6    R(5,7)                  1.2651         estimate D2E/DX2                !
 ! A1    A(2,1,3)              109.471          estimate D2E/DX2                !
 ! A2    A(2,1,4)              109.4713         estimate D2E/DX2                !
 ! A3    A(2,1,5)              109.4713         estimate D2E/DX2                !
 ! A4    A(3,1,4)              109.4712         estimate D2E/DX2                !
 ! A5    A(3,1,5)              109.4712         estimate D2E/DX2                !
 ! A6    A(4,1,5)              109.4713         estimate D2E/DX2                !
 ! A7    A(1,5,6)              115.8619         estimate D2E/DX2                !
 ! A8    A(1,5,7)              115.8621         estimate D2E/DX2                !
 ! A9    A(6,5,7)              128.276          estimate D2E/DX2                !
 ! D1    D(2,1,5,6)              0.0            estimate D2E/DX2                !
 ! D2    D(2,1,5,7)            179.9998         estimate D2E/DX2                !
 ! D3    D(3,1,5,6)           -119.9997         estimate D2E/DX2                !
 ! D4    D(3,1,5,7)             60.0            estimate D2E/DX2                !
 ! D5    D(4,1,5,6)            120.0003         estimate D2E/DX2                !
 ! D6    D(4,1,5,7)            -59.9999         estimate D2E/DX2                !
 --------------------------------------------------------------------------------
 Trust Radius=3.00D-01 FncErr=1.00D-07 GrdErr=1.00D-06
 Number of steps in this run=    100 maximum allowed number of steps=    100.
 GradGradGradGradGradGradGradGradGradGradGradGradGradGradGradGradGradGrad

                          Input orientation:                          
 ---------------------------------------------------------------------
 Center     Atomic      Atomic             Coordinates (Angstroms)
 Number     Number       Type             X           Y           Z
 ---------------------------------------------------------------------
      1          6           0       -0.505240    0.453480   -0.001130
      2          1           0       -0.860320    0.852700    0.925930
      3          1           0       -0.862700   -0.548210   -0.118340
      4          1           0       -0.862700    1.056610   -0.809430
      5          6           0        1.003340    0.452540   -0.003310
      6          8           0        1.556960    0.902440    1.041440
      7          8           0        1.553380    0.001950   -1.049650
 ---------------------------------------------------------------------
                    Distance matrix (angstroms):
                    1          2          3          4          5
     1  C    0.000000
     2  H    1.069999   0.000000
     3  H    1.069999   1.747299   0.000000
     4  H    1.069996   1.747301   1.747299   0.000000
     5  C    1.508582   2.120576   2.120575   2.120574   0.000000
     6  O    2.353972   2.420549   3.050284   3.050286   1.265072
     7  O    2.353973   3.233054   2.647160   2.647160   1.265070
                    6          7
     6  O    0.000000
     7  O    2.276742   0.000000
 Stoichiometry    C2H3O2(1-)
 Framework group  C1[X(C2H3O2)]
 Deg. of freedom    15
 Full point group                 C1      NOp   1
 Largest Abelian subgroup         C1      NOp   1
 Largest concise Abelian subgroup C1      NOp   1
                         Standard orientation:                         
 ---------------------------------------------------------------------
 Center     Atomic      Atomic             Coordinates (Angstroms)
 Number     Number       Type             X           Y           Z
 ---------------------------------------------------------------------
      1          6           0       -1.320906   -0.000003   -0.000001
      2          1           0       -1.677576    1.008801    0.000001
      3          1           0       -1.677571   -0.504404    0.873652
      4          1           0       -1.677573   -0.504407   -0.873647
      5          6           0        0.187676   -0.000001   -0.000001
      6          8           0        0.739503    1.138373    0.000000
      7          8           0        0.739509   -1.138369    0.000000
 ---------------------------------------------------------------------
 Rotational constants (GHZ):     11.3486236     10.4243746      5.6193337
 Standard basis: CC-pVDZ (5D, 7F)
 There are    75 symmetry adapted cartesian basis functions of A   symmetry.
 There are    71 symmetry adapted basis functions of A   symmetry.
    71 basis functions,   153 primitive gaussians,    75 cartesian basis functions
    16 alpha electrons       16 beta electrons
       nuclear repulsion energy       112.5759678674 Hartrees.
 NAtoms=    7 NActive=    7 NUniq=    7 SFac= 1.00D+00 NAtFMM=   60 NAOKFM=F Big=F
 Integral buffers will be    131072 words long.
 Raffenetti 2 integral format.
 Two-electron integral symmetry is turned on.
 One-electron integrals computed using PRISM.
 NBasis=    71 RedAO= T EigKep=  5.47D-03  NBF=    71
 NBsUse=    71 1.00D-06 EigRej= -1.00D+00 NBFU=    71
 ExpMin= 1.22D-01 ExpMax= 1.17D+04 ExpMxC= 4.01D+02 IAcc=1 IRadAn=         1 AccDes= 0.00D+00
 Harris functional with IExCor=  402 and IRadAn=       1 diagonalized for initial guess.
 HarFok:  IExCor=  402 AccDes= 0.00D+00 IRadAn=         1 IDoV= 1 UseB2=F ITyADJ=14
 ICtDFT=  3500011 ScaDFX=  1.000000  1.000000  1.000000  1.000000
 FoFCou: FMM=F IPFlag=           0 FMFlag=      100000 FMFlg1=           0
         NFxFlg=           0 DoJE=T BraDBF=F KetDBF=T FulRan=T
         wScrn=  0.000000 ICntrl=     500 IOpCl=  0 I1Cent=   200000004 NGrid=           0
         NMat0=    1 NMatS0=      1 NMatT0=    0 NMatD0=    1 NMtDS0=    0 NMtDT0=    0
 Petite list used in FoFCou.
 Keep R1 ints in memory in canonical form, NReq=4198417.
 Requested convergence on RMS density matrix=1.00D-08 within 128 cycles.
 Requested convergence on MAX density matrix=1.00D-06.
 Requested convergence on             energy=1.00D-06.
 No special actions if energy rises.
 Integral accuracy reduced to 1.0D-05 until final iterations.
 Initial convergence to 1.0D-05 achieved.  Increase integral accuracy.
 SCF Done:  E(RB3LYP) =  -228.508549614     A.U. after   14 cycles
            NFock= 14  Conv=0.51D-08     -V/T= 2.0048

 **********************************************************************

            Population analysis using the SCF density.

 **********************************************************************

 Orbital symmetries:
       Occupied  (A) (A) (A) (A) (A) (A) (A) (A) (A) (A) (A) (A)
                 (A) (A) (A) (A)
       Virtual   (A) (A) (A) (A) (A) (A) (A) (A) (A) (A) (A) (A)
                 (A) (A) (A) (A) (A) (A) (A) (A) (A) (A) (A) (A)
                 (A) (A) (A) (A) (A) (A) (A) (A) (A) (A) (A) (A)
                 (A) (A) (A) (A) (A) (A) (A) (A) (A) (A) (A) (A)
                 (A) (A) (A) (A) (A) (A) (A)
 The electronic state is 1-A.
 Alpha  occ. eigenvalues --  -18.83495 -18.83232 -10.03300  -9.97411  -0.77473
 Alpha  occ. eigenvalues --   -0.68784  -0.52312  -0.27752  -0.23813  -0.22347
 Alpha  occ. eigenvalues --   -0.18584  -0.14642  -0.12551  -0.00421   0.00264
 Alpha  occ. eigenvalues --    0.01480
 Alpha virt. eigenvalues --    0.25143   0.27302   0.30959   0.33665   0.43161
 Alpha virt. eigenvalues --    0.52189   0.57021   0.65187   0.68458   0.74964
 Alpha virt. eigenvalues --    0.75421   0.78243   0.82919   0.83086   0.87080
 Alpha virt. eigenvalues --    0.88163   1.01115   1.09283   1.12717   1.13438
 Alpha virt. eigenvalues --    1.23301   1.30375   1.32464   1.36398   1.36619
 Alpha virt. eigenvalues --    1.45015   1.48705   1.61021   1.61690   1.77859
 Alpha virt. eigenvalues --    1.84628   1.84953   1.85676   1.93891   2.04086
 Alpha virt. eigenvalues --    2.06482   2.11125   2.16827   2.30840   2.39610
 Alpha virt. eigenvalues --    2.40180   2.47406   2.66965   2.67089   2.70710
 Alpha virt. eigenvalues --    2.89024   2.91431   2.94132   2.99676   3.21354
 Alpha virt. eigenvalues --    3.43334   3.46465   3.60618   3.68212   3.76049
          Condensed to atoms (all electrons):
               1          2          3          4          5          6
     1  C    5.110110   0.265011   0.329395   0.329395   0.197414  -0.143730
     2  H    0.265011   0.809578  -0.029972  -0.029971   0.015064   0.022764
     3  H    0.329395  -0.029972   0.760542  -0.031810   0.000666   0.003352
     4  H    0.329395  -0.029971  -0.031810   0.760542   0.000666   0.003352
     5  C    0.197414   0.015064   0.000666   0.000666   4.375771   0.704613
     6  O   -0.143730   0.022764   0.003352   0.003352   0.704613   7.938597
     7  O   -0.136382   0.009388   0.006519   0.006519   0.700391  -0.076351
               7
     1  C   -0.136382
     2  H    0.009388
     3  H    0.006519
     4  H    0.006519
     5  C    0.700391
     6  O   -0.076351
     7  O    7.952269
 Mulliken charges:
               1
     1  C    0.048787
     2  H   -0.061863
     3  H   -0.038693
     4  H   -0.038693
     5  C    0.005414
     6  O   -0.452598
     7  O   -0.462354
 Sum of Mulliken charges =  -1.00000
 Mulliken charges with hydrogens summed into heavy atoms:
               1
     1  C   -0.090462
     5  C    0.005414
     6  O   -0.452598
     7  O   -0.462354
 Electronic spatial extent (au):  <R**2>=            250.1992
 Charge=             -1.0000 electrons
 Dipole moment (field-independent basis, Debye):
    X=             -3.1725    Y=             -0.0313    Z=              0.0000  Tot=              3.1726
 Quadrupole moment (field-independent basis, Debye-Ang):
   XX=            -30.7790   YY=            -33.4092   ZZ=            -24.2047
   XY=              0.1741   XZ=              0.0000   YZ=              0.0000
 Traceless Quadrupole moment (field-independent basis, Debye-Ang):
   XX=             -1.3147   YY=             -3.9449   ZZ=              5.2596
   XY=              0.1741   XZ=              0.0000   YZ=              0.0000
 Octapole moment (field-independent basis, Debye-Ang**2):
  XXX=              8.5882  YYY=             -0.0378  ZZZ=              0.0000  XYY=             -3.8648
  XXY=             -0.2388  XXZ=              0.0000  XZZ=              2.0883  YZZ=             -0.1388
  YYZ=              0.0000  XYZ=              0.0000
 Hexadecapole moment (field-independent basis, Debye-Ang**3):
 XXXX=           -181.5025 YYYY=           -132.9489 ZZZZ=            -29.0888 XXXY=              0.7223
 XXXZ=              0.0000 YYYX=              0.1333 YYYZ=              0.0000 ZZZX=              0.0000
 ZZZY=              0.0000 XXYY=            -52.5841 XXZZ=            -32.5888 YYZZ=            -24.9778
 XXYZ=              0.0000 YYXZ=              0.0000 ZZXY=              0.4155
 N-N= 1.125759678674D+02 E-N=-7.707614180528D+02  KE= 2.274171423810D+02
 Calling FoFJK, ICntrl=      2127 FMM=F ISym2X=0 I1Cent= 0 IOpClX= 0 NMat=1 NMatS=1 NMatT=0.
 ***** Axes restored to original set *****
 -------------------------------------------------------------------
 Center     Atomic                   Forces (Hartrees/Bohr)
 Number     Number              X              Y              Z
 -------------------------------------------------------------------
      1        6           0.001414696    0.002811860    0.006534388
      2        1          -0.010421863    0.008358923    0.019410127
      3        1          -0.010627658   -0.021970141   -0.005884914
      4        1          -0.010628512    0.010822065   -0.020007223
      5        6           0.035554451    0.000148743    0.000346853
      6        8          -0.001697035   -0.001558968   -0.003620677
      7        8          -0.003594078    0.001387518    0.003221445
 -------------------------------------------------------------------
 Cartesian Forces:  Max     0.035554451 RMS     0.012298635

 GradGradGradGradGradGradGradGradGradGradGradGradGradGradGradGradGradGrad
 Berny optimization.
 FormGI is forming the generalized inverse of G from B-inverse, IUseBI=4.
 Internal  Forces:  Max     0.030263390 RMS     0.011563676
 Search for a local minimum.
 Step number   1 out of a maximum of  100
 All quantities printed in internal units (Hartrees-Bohrs-Radians)
 Mixed Optimization -- RFO/linear search
 Second derivative matrix not updated -- first step.
 ITU=  0
     Eigenvalues ---    0.00652   0.00652   0.07474   0.07474   0.16000
     Eigenvalues ---    0.16000   0.16000   0.25000   0.25000   0.31493
     Eigenvalues ---    0.37230   0.37230   0.37231   0.77907   0.77908
 RFO step:  Lambda=-8.12978157D-03 EMin= 6.52425777D-03
 Linear search not attempted -- first point.
 Iteration  1 RMS(Cart)=  0.04415616 RMS(Int)=  0.00054729
 Iteration  2 RMS(Cart)=  0.00043356 RMS(Int)=  0.00016117
 Iteration  3 RMS(Cart)=  0.00000026 RMS(Int)=  0.00016117
 Variable       Old X    -DE/DX   Delta X   Delta X   Delta X     New X
                                 (Linear)    (Quad)   (Total)
    R1        2.02201   0.02339   0.00000   0.06149   0.06149   2.08349
    R2        2.02201   0.02476   0.00000   0.06509   0.06509   2.08710
    R3        2.02200   0.02477   0.00000   0.06510   0.06510   2.08710
    R4        2.85081   0.03026   0.00000   0.09368   0.09368   2.94448
    R5        2.39064  -0.00428   0.00000  -0.00544  -0.00544   2.38520
    R6        2.39064  -0.00472   0.00000  -0.00600  -0.00600   2.38463
    A1        1.91063  -0.00154   0.00000  -0.00193  -0.00228   1.90835
    A2        1.91064  -0.00154   0.00000  -0.00193  -0.00229   1.90835
    A3        1.91063   0.00417   0.00000   0.03202   0.03165   1.94229
    A4        1.91063  -0.00481   0.00000  -0.04308  -0.04310   1.86753
    A5        1.91063   0.00186   0.00000   0.00746   0.00726   1.91789
    A6        1.91064   0.00186   0.00000   0.00746   0.00726   1.91789
    A7        2.02217   0.00167   0.00000   0.00645   0.00645   2.02863
    A8        2.02218  -0.00287   0.00000  -0.01112  -0.01112   2.01105
    A9        2.23884   0.00121   0.00000   0.00467   0.00467   2.24351
    D1        0.00000   0.00000   0.00000  -0.00001  -0.00001  -0.00001
    D2        3.14159   0.00000   0.00000   0.00001   0.00001  -3.14158
    D3       -2.09439  -0.00181   0.00000  -0.02182  -0.02196  -2.11635
    D4        1.04720  -0.00181   0.00000  -0.02180  -0.02194   1.02526
    D5        2.09440   0.00181   0.00000   0.02180   0.02194   2.11634
    D6       -1.04720   0.00181   0.00000   0.02182   0.02196  -1.02524
         Item               Value     Threshold  Converged?
 Maximum Force            0.030263     0.000015     NO 
 RMS     Force            0.011564     0.000010     NO 
 Maximum Displacement     0.095920     0.000060     NO 
 RMS     Displacement     0.044174     0.000040     NO 
 Predicted change in Energy=-4.173112D-03
 GradGradGradGradGradGradGradGradGradGradGradGradGradGradGradGradGradGrad

                          Input orientation:                          
 ---------------------------------------------------------------------
 Center     Atomic      Atomic             Coordinates (Angstroms)
 Number     Number       Type             X           Y           Z
 ---------------------------------------------------------------------
      1          6           0       -0.513638    0.457684    0.008637
      2          1           0       -0.909017    0.864754    0.953919
      3          1           0       -0.891871   -0.570190   -0.133540
      4          1           0       -0.891867    1.060670   -0.835845
      5          6           0        1.044498    0.454774    0.001895
      6          8           0        1.607719    0.901542    1.039348
      7          8           0        1.576896    0.002276   -1.048903
 ---------------------------------------------------------------------
                    Distance matrix (angstroms):
                    1          2          3          4          5
     1  C    0.000000
     2  H    1.102537   0.000000
     3  H    1.104446   1.800536   0.000000
     4  H    1.104445   1.800537   1.775651   0.000000
     5  C    1.558153   2.211482   2.195090   2.195091   0.000000
     6  O    2.399902   2.518454   3.128836   3.128834   1.262192
     7  O    2.386654   3.306800   2.694516   2.694509   1.261894
                    6          7
     6  O    0.000000
     7  O    2.273856   0.000000
 Stoichiometry    C2H3O2(1-)
 Framework group  C1[X(C2H3O2)]
 Deg. of freedom    15
 Full point group                 C1      NOp   1
 Largest Abelian subgroup         C1      NOp   1
 Largest concise Abelian subgroup C1      NOp   1
                         Standard orientation:                         
 ---------------------------------------------------------------------
 Center     Atomic      Atomic             Coordinates (Angstroms)
 Number     Number       Type             X           Y           Z
 ---------------------------------------------------------------------
      1          6           0       -1.350802    0.040140   -0.000001
      2          1           0       -1.723442    1.077795   -0.000004
      3          1           0       -1.740761   -0.488534    0.887825
      4          1           0       -1.740755   -0.488540   -0.887826
      5          6           0        0.206795   -0.001481    0.000006
      6          8           0        0.794731    1.115417   -0.000002
      7          8           0        0.713894   -1.157002   -0.000001
 ---------------------------------------------------------------------
 Rotational constants (GHZ):     11.3396637      9.9274800      5.4755829
 Standard basis: CC-pVDZ (5D, 7F)
 There are    75 symmetry adapted cartesian basis functions of A   symmetry.
 There are    71 symmetry adapted basis functions of A   symmetry.
    71 basis functions,   153 primitive gaussians,    75 cartesian basis functions
    16 alpha electrons       16 beta electrons
       nuclear repulsion energy       111.2534622585 Hartrees.
 NAtoms=    7 NActive=    7 NUniq=    7 SFac= 1.00D+00 NAtFMM=   60 NAOKFM=F Big=F
 Integral buffers will be    131072 words long.
 Raffenetti 2 integral format.
 Two-electron integral symmetry is turned on.
 One-electron integrals computed using PRISM.
 NBasis=    71 RedAO= T EigKep=  6.25D-03  NBF=    71
 NBsUse=    71 1.00D-06 EigRej= -1.00D+00 NBFU=    71
 Initial guess from the checkpoint file:  "oac.chk"
 B after Tr=     0.000000    0.000000    0.000000
         Rot=    0.999893    0.000000    0.000000    0.014626 Ang=   1.68 deg.
 ExpMin= 1.22D-01 ExpMax= 1.17D+04 ExpMxC= 4.01D+02 IAcc=1 IRadAn=         1 AccDes= 0.00D+00
 Harris functional with IExCor=  402 and IRadAn=       1 diagonalized for initial guess.
 HarFok:  IExCor=  402 AccDes= 0.00D+00 IRadAn=         1 IDoV= 1 UseB2=F ITyADJ=14
 ICtDFT=  3500011 ScaDFX=  1.000000  1.000000  1.000000  1.000000
 FoFCou: FMM=F IPFlag=           0 FMFlag=      100000 FMFlg1=           0
         NFxFlg=           0 DoJE=T BraDBF=F KetDBF=T FulRan=T
         wScrn=  0.000000 ICntrl=     500 IOpCl=  0 I1Cent=   200000004 NGrid=           0
         NMat0=    1 NMatS0=      1 NMatT0=    0 NMatD0=    1 NMtDS0=    0 NMtDT0=    0
 Petite list used in FoFCou.
 Keep R1 ints in memory in canonical form, NReq=4198417.
 Requested convergence on RMS density matrix=1.00D-08 within 128 cycles.
 Requested convergence on MAX density matrix=1.00D-06.
 Requested convergence on             energy=1.00D-06.
 No special actions if energy rises.
 Integral accuracy reduced to 1.0D-05 until final iterations.
 Initial convergence to 1.0D-05 achieved.  Increase integral accuracy.
 SCF Done:  E(RB3LYP) =  -228.512966321     A.U. after   12 cycles
            NFock= 12  Conv=0.91D-08     -V/T= 2.0057
 Calling FoFJK, ICntrl=      2127 FMM=F ISym2X=0 I1Cent= 0 IOpClX= 0 NMat=1 NMatS=1 NMatT=0.
 ***** Axes restored to original set *****
 -------------------------------------------------------------------
 Center     Atomic                   Forces (Hartrees/Bohr)
 Number     Number              X              Y              Z
 -------------------------------------------------------------------
      1        6          -0.001998296    0.000928704    0.002159316
      2        1          -0.001208562    0.000193448    0.000449030
      3        1          -0.001047487   -0.000828593   -0.000954461
      4        1          -0.001047190   -0.000123954   -0.001257819
      5        6           0.015750696    0.000189420    0.000432408
      6        8          -0.005402880   -0.001630942   -0.003784757
      7        8          -0.005046280    0.001271917    0.002956283
 -------------------------------------------------------------------
 Cartesian Forces:  Max     0.015750696 RMS     0.004064433

 GradGradGradGradGradGradGradGradGradGradGradGradGradGradGradGradGradGrad
 Berny optimization.
 Using GEDIIS/GDIIS optimizer.
 FormGI is forming the generalized inverse of G from B-inverse, IUseBI=4.
 Internal  Forces:  Max     0.006094447 RMS     0.002555709
 Search for a local minimum.
 Step number   2 out of a maximum of  100
 All quantities printed in internal units (Hartrees-Bohrs-Radians)
 Mixed Optimization -- RFO/linear search
 Update second derivatives using D2CorX and points    1    2
 DE= -4.42D-03 DEPred=-4.17D-03 R= 1.06D+00
 TightC=F SS=  1.41D+00  RLast= 1.62D-01 DXNew= 5.0454D-01 4.8546D-01
 Trust test= 1.06D+00 RLast= 1.62D-01 DXMaxT set to 4.85D-01
 ITU=  1  0
 Use linear search instead of GDIIS.
     Eigenvalues ---    0.00652   0.00652   0.07150   0.07341   0.15710
     Eigenvalues ---    0.16000   0.16003   0.23433   0.25042   0.30002
     Eigenvalues ---    0.37222   0.37230   0.38810   0.77862   0.78096
 RFO step:  Lambda=-3.50504698D-04 EMin= 6.52425777D-03
 Quartic linear search produced a step of  0.15536.
 Iteration  1 RMS(Cart)=  0.00961380 RMS(Int)=  0.00010558
 Iteration  2 RMS(Cart)=  0.00008467 RMS(Int)=  0.00005585
 Iteration  3 RMS(Cart)=  0.00000000 RMS(Int)=  0.00005585
 Variable       Old X    -DE/DX   Delta X   Delta X   Delta X     New X
                                 (Linear)    (Quad)   (Total)
    R1        2.08349   0.00089   0.00955  -0.00362   0.00593   2.08942
    R2        2.08710   0.00125   0.01011  -0.00285   0.00726   2.09436
    R3        2.08710   0.00125   0.01011  -0.00286   0.00726   2.09436
    R4        2.94448   0.00530   0.01455   0.00992   0.02447   2.96895
    R5        2.38520  -0.00609  -0.00085  -0.00844  -0.00928   2.37591
    R6        2.38463  -0.00505  -0.00093  -0.00683  -0.00776   2.37687
    A1        1.90835  -0.00056  -0.00035  -0.00071  -0.00119   1.90716
    A2        1.90835  -0.00056  -0.00036  -0.00071  -0.00119   1.90716
    A3        1.94229   0.00142   0.00492   0.01060   0.01538   1.95767
    A4        1.86753  -0.00128  -0.00670  -0.01188  -0.01859   1.84894
    A5        1.91789   0.00043   0.00113   0.00090   0.00196   1.91985
    A6        1.91789   0.00043   0.00113   0.00090   0.00195   1.91984
    A7        2.02863  -0.00223   0.00100  -0.01092  -0.00992   2.01870
    A8        2.01105  -0.00271  -0.00173  -0.01141  -0.01314   1.99791
    A9        2.24351   0.00494   0.00073   0.02234   0.02306   2.26657
    D1       -0.00001   0.00000   0.00000   0.00011   0.00011   0.00010
    D2       -3.14158   0.00000   0.00000  -0.00011  -0.00011   3.14149
    D3       -2.11635  -0.00052  -0.00341  -0.00659  -0.01005  -2.12640
    D4        1.02526  -0.00052  -0.00341  -0.00682  -0.01027   1.01499
    D5        2.11634   0.00052   0.00341   0.00681   0.01026   2.12660
    D6       -1.02524   0.00052   0.00341   0.00659   0.01004  -1.01520
         Item               Value     Threshold  Converged?
 Maximum Force            0.006094     0.000015     NO 
 RMS     Force            0.002556     0.000010     NO 
 Maximum Displacement     0.028564     0.000060     NO 
 RMS     Displacement     0.009592     0.000040     NO 
 Predicted change in Energy=-2.292756D-04
 GradGradGradGradGradGradGradGradGradGradGradGradGradGradGradGradGradGrad

                          Input orientation:                          
 ---------------------------------------------------------------------
 Center     Atomic      Atomic             Coordinates (Angstroms)
 Number     Number       Type             X           Y           Z
 ---------------------------------------------------------------------
      1          6           0       -0.511449    0.459839    0.013614
      2          1           0       -0.921224    0.866000    0.956819
      3          1           0       -0.894409   -0.568991   -0.138536
      4          1           0       -0.894464    1.056217   -0.838403
      5          6           0        1.059613    0.455410    0.003195
      6          8           0        1.612269    0.901978    1.040451
      7          8           0        1.572383    0.001057   -1.051630
 ---------------------------------------------------------------------
                    Distance matrix (angstroms):
                    1          2          3          4          5
     1  C    0.000000
     2  H    1.105676   0.000000
     3  H    1.108287   1.805470   0.000000
     4  H    1.108287   1.805470   1.769496   0.000000
     5  C    1.571103   2.236448   2.210811   2.210809   0.000000
     6  O    2.400013   2.535129   3.136430   3.136494   1.257280
     7  O    2.384866   3.316636   2.691423   2.691498   1.257786
                    6          7
     6  O    0.000000
     7  O    2.278169   0.000000
 Stoichiometry    C2H3O2(1-)
 Framework group  C1[X(C2H3O2)]
 Deg. of freedom    15
 Full point group                 C1      NOp   1
 Largest Abelian subgroup         C1      NOp   1
 Largest concise Abelian subgroup C1      NOp   1
                         Standard orientation:                         
 ---------------------------------------------------------------------
 Center     Atomic      Atomic             Coordinates (Angstroms)
 Number     Number       Type             X           Y           Z
 ---------------------------------------------------------------------
      1          6           0       -1.351106    0.050608    0.000008
      2          1           0       -1.733791    1.087946    0.000030
      3          1           0       -1.748264   -0.485820    0.884774
      4          1           0       -1.748350   -0.485815   -0.884722
      5          6           0        0.219118   -0.001937   -0.000072
      6          8           0        0.801219    1.112473    0.000019
      7          8           0        0.701572   -1.163515    0.000019
 ---------------------------------------------------------------------
 Rotational constants (GHZ):     11.3010958      9.9206264      5.4631966
 Standard basis: CC-pVDZ (5D, 7F)
 There are    75 symmetry adapted cartesian basis functions of A   symmetry.
 There are    71 symmetry adapted basis functions of A   symmetry.
    71 basis functions,   153 primitive gaussians,    75 cartesian basis functions
    16 alpha electrons       16 beta electrons
       nuclear repulsion energy       111.1932264941 Hartrees.
 NAtoms=    7 NActive=    7 NUniq=    7 SFac= 1.00D+00 NAtFMM=   60 NAOKFM=F Big=F
 Integral buffers will be    131072 words long.
 Raffenetti 2 integral format.
 Two-electron integral symmetry is turned on.
 One-electron integrals computed using PRISM.
 NBasis=    71 RedAO= T EigKep=  6.47D-03  NBF=    71
 NBsUse=    71 1.00D-06 EigRej= -1.00D+00 NBFU=    71
 Initial guess from the checkpoint file:  "oac.chk"
 B after Tr=     0.000000    0.000000    0.000000
         Rot=    0.999995    0.000000   -0.000003    0.003249 Ang=  -0.37 deg.
 ExpMin= 1.22D-01 ExpMax= 1.17D+04 ExpMxC= 4.01D+02 IAcc=1 IRadAn=         1 AccDes= 0.00D+00
 Harris functional with IExCor=  402 and IRadAn=       1 diagonalized for initial guess.
 HarFok:  IExCor=  402 AccDes= 0.00D+00 IRadAn=         1 IDoV= 1 UseB2=F ITyADJ=14
 ICtDFT=  3500011 ScaDFX=  1.000000  1.000000  1.000000  1.000000
 FoFCou: FMM=F IPFlag=           0 FMFlag=      100000 FMFlg1=           0
         NFxFlg=           0 DoJE=T BraDBF=F KetDBF=T FulRan=T
         wScrn=  0.000000 ICntrl=     500 IOpCl=  0 I1Cent=   200000004 NGrid=           0
         NMat0=    1 NMatS0=      1 NMatT0=    0 NMatD0=    1 NMtDS0=    0 NMtDT0=    0
 Petite list used in FoFCou.
 Keep R1 ints in memory in canonical form, NReq=4198417.
 Requested convergence on RMS density matrix=1.00D-08 within 128 cycles.
 Requested convergence on MAX density matrix=1.00D-06.
 Requested convergence on             energy=1.00D-06.
 No special actions if energy rises.
 Integral accuracy reduced to 1.0D-05 until final iterations.
 Initial convergence to 1.0D-05 achieved.  Increase integral accuracy.
 SCF Done:  E(RB3LYP) =  -228.513230318     A.U. after   11 cycles
            NFock= 11  Conv=0.43D-08     -V/T= 2.0057
 Calling FoFJK, ICntrl=      2127 FMM=F ISym2X=0 I1Cent= 0 IOpClX= 0 NMat=1 NMatS=1 NMatT=0.
 ***** Axes restored to original set *****
 -------------------------------------------------------------------
 Center     Atomic                   Forces (Hartrees/Bohr)
 Number     Number              X              Y              Z
 -------------------------------------------------------------------
      1        6          -0.002614066   -0.000013095   -0.000053411
      2        1           0.000178508   -0.000369818   -0.000860401
      3        1           0.000273168    0.000682524    0.000237758
      4        1           0.000268913   -0.000295888    0.000658259
      5        6           0.002574411    0.000115789    0.000358659
      6        8          -0.000351222   -0.000637317   -0.001510765
      7        8          -0.000329712    0.000517805    0.001169901
 -------------------------------------------------------------------
 Cartesian Forces:  Max     0.002614066 RMS     0.000982284

 GradGradGradGradGradGradGradGradGradGradGradGradGradGradGradGradGradGrad
 Berny optimization.
 Using GEDIIS/GDIIS optimizer.
 FormGI is forming the generalized inverse of G from B-inverse, IUseBI=4.
 Internal  Forces:  Max     0.001893194 RMS     0.000707894
 Search for a local minimum.
 Step number   3 out of a maximum of  100
 All quantities printed in internal units (Hartrees-Bohrs-Radians)
 Mixed Optimization -- En-DIIS/RFO-DIIS
 Update second derivatives using D2CorX and points    1    2    3
 DE= -2.64D-04 DEPred=-2.29D-04 R= 1.15D+00
 TightC=F SS=  1.41D+00  RLast= 5.19D-02 DXNew= 8.1645D-01 1.5572D-01
 Trust test= 1.15D+00 RLast= 5.19D-02 DXMaxT set to 4.85D-01
 ITU=  1  1  0
 Use linear search instead of GDIIS.
     Eigenvalues ---    0.00652   0.00652   0.06998   0.07145   0.15021
     Eigenvalues ---    0.16000   0.16033   0.21774   0.25187   0.29755
     Eigenvalues ---    0.37217   0.37230   0.40674   0.74965   0.77913
 RFO step:  Lambda=-2.61305784D-05 EMin= 6.52425776D-03
 Quartic linear search produced a step of  0.08777.
 Iteration  1 RMS(Cart)=  0.00316640 RMS(Int)=  0.00000392
 Iteration  2 RMS(Cart)=  0.00000299 RMS(Int)=  0.00000300
 Iteration  3 RMS(Cart)=  0.00000000 RMS(Int)=  0.00000300
 Variable       Old X    -DE/DX   Delta X   Delta X   Delta X     New X
                                 (Linear)    (Quad)   (Total)
    R1        2.08942  -0.00094   0.00052  -0.00246  -0.00194   2.08748
    R2        2.09436  -0.00076   0.00064  -0.00195  -0.00132   2.09304
    R3        2.09436  -0.00076   0.00064  -0.00195  -0.00131   2.09305
    R4        2.96895   0.00189   0.00215   0.00642   0.00857   2.97752
    R5        2.37591  -0.00162  -0.00081  -0.00198  -0.00279   2.37312
    R6        2.37687  -0.00131  -0.00068  -0.00159  -0.00228   2.37460
    A1        1.90716  -0.00013  -0.00010  -0.00100  -0.00111   1.90604
    A2        1.90716  -0.00013  -0.00010  -0.00101  -0.00112   1.90604
    A3        1.95767   0.00025   0.00135   0.00133   0.00267   1.96034
    A4        1.84894   0.00010  -0.00163   0.00121  -0.00042   1.84852
    A5        1.91985  -0.00005   0.00017  -0.00030  -0.00013   1.91972
    A6        1.91984  -0.00005   0.00017  -0.00025  -0.00008   1.91976
    A7        2.01870   0.00045  -0.00087   0.00233   0.00146   2.02016
    A8        1.99791   0.00005  -0.00115   0.00056  -0.00059   1.99732
    A9        2.26657  -0.00050   0.00202  -0.00289  -0.00087   2.26570
    D1        0.00010  -0.00001   0.00001  -0.00144  -0.00143  -0.00132
    D2        3.14149   0.00001  -0.00001   0.00152   0.00151  -3.14019
    D3       -2.12640   0.00003  -0.00088  -0.00085  -0.00173  -2.12813
    D4        1.01499   0.00004  -0.00090   0.00211   0.00120   1.01619
    D5        2.12660  -0.00004   0.00090  -0.00200  -0.00109   2.12551
    D6       -1.01520  -0.00002   0.00088   0.00096   0.00184  -1.01336
         Item               Value     Threshold  Converged?
 Maximum Force            0.001893     0.000015     NO 
 RMS     Force            0.000708     0.000010     NO 
 Maximum Displacement     0.007574     0.000060     NO 
 RMS     Displacement     0.003165     0.000040     NO 
 Predicted change in Energy=-1.475782D-05
 GradGradGradGradGradGradGradGradGradGradGradGradGradGradGradGradGradGrad

                          Input orientation:                          
 ---------------------------------------------------------------------
 Center     Atomic      Atomic             Coordinates (Angstroms)
 Number     Number       Type             X           Y           Z
 ---------------------------------------------------------------------
      1          6           0       -0.513128    0.459892    0.014141
      2          1           0       -0.925232    0.865445    0.955388
      3          1           0       -0.896148   -0.568125   -0.138277
      4          1           0       -0.895417    1.055783   -0.837641
      5          6           0        1.062466    0.454746    0.003948
      6          8           0        1.616147    0.901726    1.038687
      7          8           0        1.574032    0.002043   -1.050736
 ---------------------------------------------------------------------
                    Distance matrix (angstroms):
                    1          2          3          4          5
     1  C    0.000000
     2  H    1.104649   0.000000
     3  H    1.107590   1.803350   0.000000
     4  H    1.107593   1.803350   1.768103   0.000000
     5  C    1.575636   2.241619   2.214196   2.214232   0.000000
     6  O    2.403898   2.543003   3.139639   3.138836   1.255802
     7  O    2.387431   3.319084   2.694340   2.693316   1.256582
                    6          7
     6  O    0.000000
     7  O    2.275278   0.000000
 Stoichiometry    C2H3O2(1-)
 Framework group  C1[X(C2H3O2)]
 Deg. of freedom    15
 Full point group                 C1      NOp   1
 Largest Abelian subgroup         C1      NOp   1
 Largest concise Abelian subgroup C1      NOp   1
                         Standard orientation:                         
 ---------------------------------------------------------------------
 Center     Atomic      Atomic             Coordinates (Angstroms)
 Number     Number       Type             X           Y           Z
 ---------------------------------------------------------------------
      1          6           0       -1.354165    0.052300   -0.000106
      2          1           0       -1.738360    1.087985   -0.000445
      3          1           0       -1.752049   -0.483673    0.883737
      4          1           0       -1.750919   -0.483828   -0.884366
      5          6           0        0.220542   -0.001767    0.000947
      6          8           0        0.804548    1.109977   -0.000249
      7          8           0        0.700835   -1.162937   -0.000247
 ---------------------------------------------------------------------
 Rotational constants (GHZ):     11.3302117      9.8798800      5.4572902
 Standard basis: CC-pVDZ (5D, 7F)
 There are    75 symmetry adapted cartesian basis functions of A   symmetry.
 There are    71 symmetry adapted basis functions of A   symmetry.
    71 basis functions,   153 primitive gaussians,    75 cartesian basis functions
    16 alpha electrons       16 beta electrons
       nuclear repulsion energy       111.1800509126 Hartrees.
 NAtoms=    7 NActive=    7 NUniq=    7 SFac= 1.00D+00 NAtFMM=   60 NAOKFM=F Big=F
 Integral buffers will be    131072 words long.
 Raffenetti 2 integral format.
 Two-electron integral symmetry is turned on.
 One-electron integrals computed using PRISM.
 NBasis=    71 RedAO= T EigKep=  6.54D-03  NBF=    71
 NBsUse=    71 1.00D-06 EigRej= -1.00D+00 NBFU=    71
 Initial guess from the checkpoint file:  "oac.chk"
 B after Tr=     0.000000    0.000000    0.000000
         Rot=    1.000000    0.000006    0.000034    0.000648 Ang=   0.07 deg.
 Keep R1 ints in memory in canonical form, NReq=4198417.
 Requested convergence on RMS density matrix=1.00D-08 within 128 cycles.
 Requested convergence on MAX density matrix=1.00D-06.
 Requested convergence on             energy=1.00D-06.
 No special actions if energy rises.
 SCF Done:  E(RB3LYP) =  -228.513246235     A.U. after    9 cycles
            NFock=  9  Conv=0.63D-08     -V/T= 2.0057
 Calling FoFJK, ICntrl=      2127 FMM=F ISym2X=0 I1Cent= 0 IOpClX= 0 NMat=1 NMatS=1 NMatT=0.
 ***** Axes restored to original set *****
 -------------------------------------------------------------------
 Center     Atomic                   Forces (Hartrees/Bohr)
 Number     Number              X              Y              Z
 -------------------------------------------------------------------
      1        6          -0.000967874   -0.000232768   -0.000237843
      2        1           0.000167362   -0.000082288   -0.000169875
      3        1           0.000217897    0.000231350    0.000166309
      4        1           0.000273916   -0.000042692    0.000295218
      5        6           0.000608821    0.000479717   -0.000061499
      6        8          -0.000158840   -0.000143257    0.000070031
      7        8          -0.000141283   -0.000210061   -0.000062341
 -------------------------------------------------------------------
 Cartesian Forces:  Max     0.000967874 RMS     0.000318257

 GradGradGradGradGradGradGradGradGradGradGradGradGradGradGradGradGradGrad
 Berny optimization.
 Using GEDIIS/GDIIS optimizer.
 FormGI is forming the generalized inverse of G from B-inverse, IUseBI=4.
 Internal  Forces:  Max     0.000342965 RMS     0.000182224
 Search for a local minimum.
 Step number   4 out of a maximum of  100
 All quantities printed in internal units (Hartrees-Bohrs-Radians)
 Mixed Optimization -- En-DIIS/RFO-DIIS
 Swapping is turned off.
 Update second derivatives using D2CorX and points    1    2    3    4
 DE= -1.59D-05 DEPred=-1.48D-05 R= 1.08D+00
 TightC=F SS=  1.41D+00  RLast= 1.10D-02 DXNew= 8.1645D-01 3.2861D-02
 Trust test= 1.08D+00 RLast= 1.10D-02 DXMaxT set to 4.85D-01
 ITU=  1  1  1  0
     Eigenvalues ---    0.00652   0.00690   0.06978   0.07368   0.14749
     Eigenvalues ---    0.15998   0.16424   0.18351   0.25157   0.31789
     Eigenvalues ---    0.36910   0.37230   0.37374   0.76347   0.78123
 En-DIIS/RFO-DIIS IScMMF=        0 using points:     4    3
 RFO step:  Lambda=-2.45247232D-06.
 DidBck=F Rises=F RFO-DIIS coefs:    1.07767   -0.07767
 Iteration  1 RMS(Cart)=  0.00694312 RMS(Int)=  0.00012929
 Iteration  2 RMS(Cart)=  0.00010092 RMS(Int)=  0.00009167
 Iteration  3 RMS(Cart)=  0.00000001 RMS(Int)=  0.00009167
 Variable       Old X    -DE/DX   Delta X   Delta X   Delta X     New X
                                 (Linear)    (Quad)   (Total)
    R1        2.08748  -0.00024  -0.00015  -0.00125  -0.00141   2.08608
    R2        2.09304  -0.00031  -0.00010  -0.00113  -0.00123   2.09181
    R3        2.09305  -0.00034  -0.00010  -0.00122  -0.00132   2.09173
    R4        2.97752   0.00031   0.00067   0.00586   0.00652   2.98404
    R5        2.37312  -0.00006  -0.00022  -0.00158  -0.00180   2.37132
    R6        2.37460   0.00007  -0.00018  -0.00114  -0.00132   2.37328
    A1        1.90604   0.00006  -0.00009  -0.00035  -0.00043   1.90561
    A2        1.90604   0.00009  -0.00009  -0.00027  -0.00036   1.90568
    A3        1.96034  -0.00008   0.00021   0.00084   0.00105   1.96139
    A4        1.84852   0.00024  -0.00003   0.00142   0.00139   1.84991
    A5        1.91972  -0.00010  -0.00001  -0.00050  -0.00051   1.91920
    A6        1.91976  -0.00019  -0.00001  -0.00111  -0.00112   1.91864
    A7        2.02016  -0.00010   0.00011   0.00010  -0.00003   2.02014
    A8        1.99732  -0.00016  -0.00005  -0.00123  -0.00152   1.99580
    A9        2.26570   0.00026  -0.00007   0.00123   0.00092   2.26663
    D1       -0.00132   0.00012  -0.00011   0.01804   0.01793   0.01660
    D2       -3.14019  -0.00011   0.00012  -0.01908  -0.01896   3.12404
    D3       -2.12813   0.00017  -0.00013   0.01826   0.01813  -2.11000
    D4        1.01619  -0.00007   0.00009  -0.01885  -0.01875   0.99744
    D5        2.12551   0.00005  -0.00008   0.01748   0.01740   2.14290
    D6       -1.01336  -0.00018   0.00014  -0.01963  -0.01949  -1.03284
         Item               Value     Threshold  Converged?
 Maximum Force            0.000343     0.000015     NO 
 RMS     Force            0.000182     0.000010     NO 
 Maximum Displacement     0.019969     0.000060     NO 
 RMS     Displacement     0.006932     0.000040     NO 
 Predicted change in Energy=-8.593195D-06
 GradGradGradGradGradGradGradGradGradGradGradGradGradGradGradGradGradGrad

                          Input orientation:                          
 ---------------------------------------------------------------------
 Center     Atomic      Atomic             Coordinates (Angstroms)
 Number     Number       Type             X           Y           Z
 ---------------------------------------------------------------------
      1          6           0       -0.514471    0.461781    0.013449
      2          1           0       -0.927456    0.864369    0.954711
      3          1           0       -0.891417   -0.567903   -0.138114
      4          1           0       -0.900562    1.056104   -0.836804
      5          6           0        1.064552    0.465313   -0.000357
      6          8           0        1.617780    0.896057    1.040338
      7          8           0        1.574294   -0.004211   -1.047714
 ---------------------------------------------------------------------
                    Distance matrix (angstroms):
                    1          2          3          4          5
     1  C    0.000000
     2  H    1.103905   0.000000
     3  H    1.106937   1.801935   0.000000
     4  H    1.106895   1.801946   1.767951   0.000000
     5  C    1.579087   2.244882   2.216377   2.215931   0.000000
     6  O    2.406157   2.546873   3.134965   3.145048   1.254850
     7  O    2.388756   3.320074   2.687909   2.700679   1.255885
                    6          7
     6  O    0.000000
     7  O    2.274277   0.000000
 Stoichiometry    C2H3O2(1-)
 Framework group  C1[X(C2H3O2)]
 Deg. of freedom    15
 Full point group                 C1      NOp   1
 Largest Abelian subgroup         C1      NOp   1
 Largest concise Abelian subgroup C1      NOp   1
                         Standard orientation:                         
 ---------------------------------------------------------------------
 Center     Atomic      Atomic             Coordinates (Angstroms)
 Number     Number       Type             X           Y           Z
 ---------------------------------------------------------------------
      1          6           0       -1.356020    0.053338    0.001322
      2          1           0       -1.740480    1.088123    0.005536
      3          1           0       -1.745459   -0.482992    0.887887
      4          1           0       -1.759570   -0.481100   -0.880006
      5          6           0        0.222053   -0.001672   -0.011864
      6          8           0        0.806308    1.108765    0.003129
      7          8           0        0.699856   -1.163019    0.003100
 ---------------------------------------------------------------------
 Rotational constants (GHZ):     11.3404553      9.8590900      5.4535098
 Standard basis: CC-pVDZ (5D, 7F)
 There are    75 symmetry adapted cartesian basis functions of A   symmetry.
 There are    71 symmetry adapted basis functions of A   symmetry.
    71 basis functions,   153 primitive gaussians,    75 cartesian basis functions
    16 alpha electrons       16 beta electrons
       nuclear repulsion energy       111.1681759865 Hartrees.
 NAtoms=    7 NActive=    7 NUniq=    7 SFac= 1.00D+00 NAtFMM=   60 NAOKFM=F Big=F
 Integral buffers will be    131072 words long.
 Raffenetti 2 integral format.
 Two-electron integral symmetry is turned on.
 One-electron integrals computed using PRISM.
 NBasis=    71 RedAO= T EigKep=  6.60D-03  NBF=    71
 NBsUse=    71 1.00D-06 EigRej= -1.00D+00 NBFU=    71
 Initial guess from the checkpoint file:  "oac.chk"
 B after Tr=     0.000000    0.000000    0.000000
         Rot=    1.000000   -0.000076   -0.000431    0.000439 Ang=  -0.07 deg.
 Keep R1 ints in memory in canonical form, NReq=4198417.
 Requested convergence on RMS density matrix=1.00D-08 within 128 cycles.
 Requested convergence on MAX density matrix=1.00D-06.
 Requested convergence on             energy=1.00D-06.
 No special actions if energy rises.
 SCF Done:  E(RB3LYP) =  -228.513169615     A.U. after   10 cycles
            NFock= 10  Conv=0.34D-08     -V/T= 2.0057
 Calling FoFJK, ICntrl=      2127 FMM=F ISym2X=0 I1Cent= 0 IOpClX= 0 NMat=1 NMatS=1 NMatT=0.
 ***** Axes restored to original set *****
 -------------------------------------------------------------------
 Center     Atomic                   Forces (Hartrees/Bohr)
 Number     Number              X              Y              Z
 -------------------------------------------------------------------
      1        6           0.000393444    0.001258905   -0.000881887
      2        1           0.000090946    0.000224376    0.000257908
      3        1           0.000459990   -0.000035274    0.000077960
      4        1          -0.000244013    0.000135225   -0.000130516
      5        6          -0.001179458   -0.005362084    0.002226082
      6        8           0.000248087    0.002178238    0.000039681
      7        8           0.000231003    0.001600613   -0.001589227
 -------------------------------------------------------------------
 Cartesian Forces:  Max     0.005362084 RMS     0.001511914

 GradGradGradGradGradGradGradGradGradGradGradGradGradGradGradGradGradGrad
 Berny optimization.
 Using GEDIIS/GDIIS optimizer.
 FormGI is forming the generalized inverse of G from B-inverse, IUseBI=4.
 Internal  Forces:  Max     0.001609677 RMS     0.000873057
 Search for a local minimum.
 Step number   5 out of a maximum of  100
 All quantities printed in internal units (Hartrees-Bohrs-Radians)
 Mixed Optimization -- En-DIIS/RFO-DIIS
 Swapping is turned off.
 Update second derivatives using D2CorX and points    1    2    3    4    5
 DE=  7.66D-05 DEPred=-8.59D-06 R=-8.92D+00
 Trust test=-8.92D+00 RLast= 4.59D-02 DXMaxT set to 2.43D-01
 ITU= -1  1  1  1  0
     Eigenvalues ---    0.00652   0.02738   0.06876   0.07731   0.08966
     Eigenvalues ---    0.15592   0.16735   0.16805   0.25106   0.32158
     Eigenvalues ---    0.34047   0.37290   0.37415   0.73633   0.77989
 En-DIIS/RFO-DIIS IScMMF=        0 using points:     5    4    3
 RFO step:  Lambda=-4.88611576D-05.
 DidBck=T Rises=F RFO-DIIS coefs:    0.09086    0.97439   -0.06525
 Iteration  1 RMS(Cart)=  0.00641399 RMS(Int)=  0.00007794
 Iteration  2 RMS(Cart)=  0.00008663 RMS(Int)=  0.00000614
 Iteration  3 RMS(Cart)=  0.00000001 RMS(Int)=  0.00000614
 Variable       Old X    -DE/DX   Delta X   Delta X   Delta X     New X
                                 (Linear)    (Quad)   (Total)
    R1        2.08608   0.00026   0.00115  -0.00062   0.00053   2.08661
    R2        2.09181  -0.00013   0.00103  -0.00091   0.00013   2.09193
    R3        2.09173   0.00026   0.00111  -0.00091   0.00021   2.09193
    R4        2.98404  -0.00071  -0.00537   0.00073  -0.00464   2.97940
    R5        2.37132   0.00089   0.00145   0.00007   0.00152   2.37284
    R6        2.37328   0.00082   0.00105   0.00022   0.00127   2.37454
    A1        1.90561   0.00035   0.00032   0.00031   0.00063   1.90624
    A2        1.90568  -0.00002   0.00025   0.00031   0.00056   1.90624
    A3        1.96139  -0.00025  -0.00078  -0.00099  -0.00178   1.95961
    A4        1.84991   0.00018  -0.00129   0.00227   0.00098   1.85089
    A5        1.91920  -0.00065   0.00046  -0.00085  -0.00039   1.91881
    A6        1.91864   0.00041   0.00101  -0.00084   0.00017   1.91881
    A7        2.02014  -0.00014   0.00012  -0.00039  -0.00026   2.01988
    A8        1.99580   0.00001   0.00134  -0.00058   0.00078   1.99658
    A9        2.26663   0.00023  -0.00090   0.00098   0.00010   2.26673
    D1        0.01660  -0.00151  -0.01639  -0.00017  -0.01656   0.00004
    D2        3.12404   0.00143   0.01733   0.00018   0.01751   3.14155
    D3       -2.11000  -0.00133  -0.01659   0.00072  -0.01588  -2.12588
    D4        0.99744   0.00161   0.01713   0.00107   0.01819   1.01563
    D5        2.14290  -0.00142  -0.01589  -0.00106  -0.01694   2.12596
    D6       -1.03284   0.00152   0.01784  -0.00071   0.01713  -1.01572
         Item               Value     Threshold  Converged?
 Maximum Force            0.001610     0.000015     NO 
 RMS     Force            0.000873     0.000010     NO 
 Maximum Displacement     0.018474     0.000060     NO 
 RMS     Displacement     0.006429     0.000040     NO 
 Predicted change in Energy=-7.879385D-05
 GradGradGradGradGradGradGradGradGradGradGradGradGradGradGradGradGradGrad

                          Input orientation:                          
 ---------------------------------------------------------------------
 Center     Atomic      Atomic             Coordinates (Angstroms)
 Number     Number       Type             X           Y           Z
 ---------------------------------------------------------------------
      1          6           0       -0.513845    0.459909    0.013794
      2          1           0       -0.925227    0.865187    0.954932
      3          1           0       -0.895214   -0.568227   -0.137707
      4          1           0       -0.895238    1.056293   -0.837278
      5          6           0        1.062745    0.455537    0.003586
      6          8           0        1.615828    0.901361    1.038965
      7          8           0        1.573671    0.001449   -1.050781
 ---------------------------------------------------------------------
                    Distance matrix (angstroms):
                    1          2          3          4          5
     1  C    0.000000
     2  H    1.104186   0.000000
     3  H    1.107004   1.802619   0.000000
     4  H    1.107004   1.802620   1.768746   0.000000
     5  C    1.576629   2.241631   2.213969   2.213969   0.000000
     6  O    2.404447   2.542702   3.138404   3.138430   1.255655
     7  O    2.387725   3.318647   2.693256   2.693286   1.256555
                    6          7
     6  O    0.000000
     7  O    2.275666   0.000000
 Stoichiometry    C2H3O2(1-)
 Framework group  C1[X(C2H3O2)]
 Deg. of freedom    15
 Full point group                 C1      NOp   1
 Largest Abelian subgroup         C1      NOp   1
 Largest concise Abelian subgroup C1      NOp   1
                         Standard orientation:                         
 ---------------------------------------------------------------------
 Center     Atomic      Atomic             Coordinates (Angstroms)
 Number     Number       Type             X           Y           Z
 ---------------------------------------------------------------------
      1          6           0       -1.354659    0.052210    0.000003
      2          1           0       -1.738047    1.087700    0.000012
      3          1           0       -1.750712   -0.483020    0.884384
      4          1           0       -1.750747   -0.483019   -0.884362
      5          6           0        0.221047   -0.001729   -0.000029
      6          8           0        0.804556    1.110111    0.000008
      7          8           0        0.700592   -1.163179    0.000008
 ---------------------------------------------------------------------
 Rotational constants (GHZ):     11.3270135      9.8782053      5.4561708
 Standard basis: CC-pVDZ (5D, 7F)
 There are    75 symmetry adapted cartesian basis functions of A   symmetry.
 There are    71 symmetry adapted basis functions of A   symmetry.
    71 basis functions,   153 primitive gaussians,    75 cartesian basis functions
    16 alpha electrons       16 beta electrons
       nuclear repulsion energy       111.1753731874 Hartrees.
 NAtoms=    7 NActive=    7 NUniq=    7 SFac= 1.00D+00 NAtFMM=   60 NAOKFM=F Big=F
 Integral buffers will be    131072 words long.
 Raffenetti 2 integral format.
 Two-electron integral symmetry is turned on.
 One-electron integrals computed using PRISM.
 NBasis=    71 RedAO= T EigKep=  6.56D-03  NBF=    71
 NBsUse=    71 1.00D-06 EigRej= -1.00D+00 NBFU=    71
 Initial guess from the checkpoint file:  "oac.chk"
 B after Tr=     0.000000    0.000000    0.000000
         Rot=    1.000000    0.000070    0.000398   -0.000405 Ang=   0.07 deg.
 Keep R1 ints in memory in canonical form, NReq=4198417.
 Requested convergence on RMS density matrix=1.00D-08 within 128 cycles.
 Requested convergence on MAX density matrix=1.00D-06.
 Requested convergence on             energy=1.00D-06.
 No special actions if energy rises.
 SCF Done:  E(RB3LYP) =  -228.513248506     A.U. after   10 cycles
            NFock= 10  Conv=0.38D-08     -V/T= 2.0057
 Calling FoFJK, ICntrl=      2127 FMM=F ISym2X=0 I1Cent= 0 IOpClX= 0 NMat=1 NMatS=1 NMatT=0.
 ***** Axes restored to original set *****
 -------------------------------------------------------------------
 Center     Atomic                   Forces (Hartrees/Bohr)
 Number     Number              X              Y              Z
 -------------------------------------------------------------------
      1        6          -0.000210524   -0.000035508   -0.000091166
      2        1           0.000033450    0.000030665    0.000070431
      3        1           0.000050501   -0.000010334    0.000020388
      4        1           0.000048729    0.000022177    0.000006006
      5        6           0.000074844   -0.000001777    0.000031843
      6        8           0.000005296    0.000007904    0.000006026
      7        8          -0.000002297   -0.000013127   -0.000043528
 -------------------------------------------------------------------
 Cartesian Forces:  Max     0.000210524 RMS     0.000060042

 GradGradGradGradGradGradGradGradGradGradGradGradGradGradGradGradGradGrad
 Berny optimization.
 Using GEDIIS/GDIIS optimizer.
 FormGI is forming the generalized inverse of G from B-inverse, IUseBI=4.
 Internal  Forces:  Max     0.000077781 RMS     0.000037449
 Search for a local minimum.
 Step number   6 out of a maximum of  100
 All quantities printed in internal units (Hartrees-Bohrs-Radians)
 Mixed Optimization -- En-DIIS/RFO-DIIS
 Swapping is turned off.
 Update second derivatives using D2CorX and points    1    2    3    4    5
                                                      6
 DE= -7.89D-05 DEPred=-7.88D-05 R= 1.00D+00
 TightC=F SS=  1.41D+00  RLast= 4.21D-02 DXNew= 4.0822D-01 1.2642D-01
 Trust test= 1.00D+00 RLast= 4.21D-02 DXMaxT set to 2.43D-01
 ITU=  1 -1  1  1  1  0
     Eigenvalues ---    0.00652   0.06683   0.06874   0.08348   0.13441
     Eigenvalues ---    0.14715   0.16723   0.17050   0.25098   0.27218
     Eigenvalues ---    0.32889   0.37291   0.37411   0.76228   0.78045
 En-DIIS/RFO-DIIS IScMMF=        0 using points:     6    5    4    3
 RFO step:  Lambda=-7.27441134D-08.
 DidBck=F Rises=F RFO-DIIS coefs:    1.16621   -0.01519   -0.14907   -0.00195
 Iteration  1 RMS(Cart)=  0.00020415 RMS(Int)=  0.00000127
 Iteration  2 RMS(Cart)=  0.00000008 RMS(Int)=  0.00000127
 Variable       Old X    -DE/DX   Delta X   Delta X   Delta X     New X
                                 (Linear)    (Quad)   (Total)
    R1        2.08661   0.00006  -0.00013   0.00030   0.00017   2.08678
    R2        2.09193  -0.00001  -0.00017   0.00014  -0.00003   2.09191
    R3        2.09193  -0.00001  -0.00017   0.00014  -0.00003   2.09191
    R4        2.97940   0.00008   0.00023   0.00034   0.00057   2.97997
    R5        2.37284   0.00001  -0.00002  -0.00002  -0.00004   2.37280
    R6        2.37454   0.00004   0.00001   0.00000   0.00001   2.37455
    A1        1.90624   0.00005   0.00004   0.00027   0.00030   1.90654
    A2        1.90624   0.00005   0.00004   0.00027   0.00030   1.90654
    A3        1.95961  -0.00006  -0.00013  -0.00031  -0.00044   1.95917
    A4        1.85089   0.00007   0.00037   0.00027   0.00064   1.85153
    A5        1.91881  -0.00005  -0.00014  -0.00023  -0.00037   1.91844
    A6        1.91881  -0.00005  -0.00014  -0.00023  -0.00037   1.91845
    A7        2.01988   0.00000  -0.00004   0.00006   0.00001   2.01989
    A8        1.99658  -0.00001  -0.00010  -0.00001  -0.00012   1.99646
    A9        2.26673   0.00002   0.00015  -0.00004   0.00011   2.26684
    D1        0.00004   0.00000  -0.00005   0.00000  -0.00005  -0.00001
    D2        3.14155   0.00000   0.00005   0.00001   0.00006  -3.14158
    D3       -2.12588   0.00001   0.00010   0.00002   0.00012  -2.12576
    D4        1.01563   0.00001   0.00019   0.00003   0.00023   1.01586
    D5        2.12596  -0.00001  -0.00019  -0.00003  -0.00022   2.12574
    D6       -1.01572  -0.00001  -0.00009  -0.00002  -0.00012  -1.01583
         Item               Value     Threshold  Converged?
 Maximum Force            0.000078     0.000015     NO 
 RMS     Force            0.000037     0.000010     NO 
 Maximum Displacement     0.000534     0.000060     NO 
 RMS     Displacement     0.000204     0.000040     NO 
 Predicted change in Energy=-9.367401D-08
 GradGradGradGradGradGradGradGradGradGradGradGradGradGradGradGradGradGrad

                          Input orientation:                          
 ---------------------------------------------------------------------
 Center     Atomic      Atomic             Coordinates (Angstroms)
 Number     Number       Type             X           Y           Z
 ---------------------------------------------------------------------
      1          6           0       -0.514128    0.459870    0.013717
      2          1           0       -0.925155    0.865251    0.955073
      3          1           0       -0.895089   -0.568421   -0.137651
      4          1           0       -0.895084    1.056466   -0.837383
      5          6           0        1.062766    0.455509    0.003603
      6          8           0        1.615784    0.901382    1.038970
      7          8           0        1.573626    0.001455   -1.050817
 ---------------------------------------------------------------------
                    Distance matrix (angstroms):
                    1          2          3          4          5
     1  C    0.000000
     2  H    1.104277   0.000000
     3  H    1.106990   1.802877   0.000000
     4  H    1.106989   1.802877   1.769148   0.000000
     5  C    1.576932   2.241654   2.213951   2.213952   0.000000
     6  O    2.404704   2.542581   3.138350   3.138345   1.255634
     7  O    2.387905   3.318680   2.693173   2.693164   1.256560
                    6          7
     6  O    0.000000
     7  O    2.275709   0.000000
 Stoichiometry    C2H3O2(1-)
 Framework group  C1[X(C2H3O2)]
 Deg. of freedom    15
 Full point group                 C1      NOp   1
 Largest Abelian subgroup         C1      NOp   1
 Largest concise Abelian subgroup C1      NOp   1
                         Standard orientation:                         
 ---------------------------------------------------------------------
 Center     Atomic      Atomic             Coordinates (Angstroms)
 Number     Number       Type             X           Y           Z
 ---------------------------------------------------------------------
      1          6           0       -1.354879    0.052206   -0.000001
      2          1           0       -1.737860    1.087944   -0.000006
      3          1           0       -1.750553   -0.482955    0.884572
      4          1           0       -1.750545   -0.482960   -0.884575
      5          6           0        0.221131   -0.001719    0.000008
      6          8           0        0.804624    1.110105   -0.000002
      7          8           0        0.700558   -1.163224   -0.000002
 ---------------------------------------------------------------------
 Rotational constants (GHZ):     11.3263694      9.8767605      5.4556649
 Standard basis: CC-pVDZ (5D, 7F)
 There are    75 symmetry adapted cartesian basis functions of A   symmetry.
 There are    71 symmetry adapted basis functions of A   symmetry.
    71 basis functions,   153 primitive gaussians,    75 cartesian basis functions
    16 alpha electrons       16 beta electrons
       nuclear repulsion energy       111.1710332197 Hartrees.
 NAtoms=    7 NActive=    7 NUniq=    7 SFac= 1.00D+00 NAtFMM=   60 NAOKFM=F Big=F
 Integral buffers will be    131072 words long.
 Raffenetti 2 integral format.
 Two-electron integral symmetry is turned on.
 One-electron integrals computed using PRISM.
 NBasis=    71 RedAO= T EigKep=  6.56D-03  NBF=    71
 NBsUse=    71 1.00D-06 EigRej= -1.00D+00 NBFU=    71
 Initial guess from the checkpoint file:  "oac.chk"
 B after Tr=     0.000000    0.000000    0.000000
         Rot=    1.000000    0.000000    0.000001    0.000017 Ang=   0.00 deg.
 Keep R1 ints in memory in canonical form, NReq=4198417.
 Requested convergence on RMS density matrix=1.00D-08 within 128 cycles.
 Requested convergence on MAX density matrix=1.00D-06.
 Requested convergence on             energy=1.00D-06.
 No special actions if energy rises.
 SCF Done:  E(RB3LYP) =  -228.513248626     A.U. after    7 cycles
            NFock=  7  Conv=0.46D-08     -V/T= 2.0057
 Calling FoFJK, ICntrl=      2127 FMM=F ISym2X=0 I1Cent= 0 IOpClX= 0 NMat=1 NMatS=1 NMatT=0.
 ***** Axes restored to original set *****
 -------------------------------------------------------------------
 Center     Atomic                   Forces (Hartrees/Bohr)
 Number     Number              X              Y              Z
 -------------------------------------------------------------------
      1        6          -0.000045061   -0.000004826   -0.000008596
      2        1           0.000022198    0.000001480    0.000003572
      3        1           0.000013416    0.000013186    0.000006771
      4        1           0.000013882   -0.000004160    0.000014336
      5        6          -0.000013768    0.000002810   -0.000003206
      6        8           0.000008477    0.000000467    0.000004412
      7        8           0.000000857   -0.000008957   -0.000017288
 -------------------------------------------------------------------
 Cartesian Forces:  Max     0.000045061 RMS     0.000014023

 GradGradGradGradGradGradGradGradGradGradGradGradGradGradGradGradGradGrad
 Berny optimization.
 Using GEDIIS/GDIIS optimizer.
 FormGI is forming the generalized inverse of G from B-inverse, IUseBI=4.
 Internal  Forces:  Max     0.000017731 RMS     0.000009803
 Search for a local minimum.
 Step number   7 out of a maximum of  100
 All quantities printed in internal units (Hartrees-Bohrs-Radians)
 Mixed Optimization -- En-DIIS/RFO-DIIS
 Swapping is turned off.
 Update second derivatives using D2CorX and points    1    2    3    4    5
                                                      6    7
 DE= -1.19D-07 DEPred=-9.37D-08 R= 1.27D+00
 Trust test= 1.27D+00 RLast= 1.26D-03 DXMaxT set to 2.43D-01
 ITU=  0  1 -1  1  1  1  0
     Eigenvalues ---    0.00652   0.06857   0.06889   0.08381   0.11344
     Eigenvalues ---    0.15466   0.16746   0.18258   0.25142   0.33066
     Eigenvalues ---    0.35496   0.37221   0.37293   0.76136   0.77879
 En-DIIS/RFO-DIIS IScMMF=        0 using points:     7    6    5    4    3
 RFO step:  Lambda= 0.00000000D+00.
 DidBck=F Rises=F RFO-DIIS coefs:    1.10025   -0.05894   -0.00316   -0.04720    0.00906
 Iteration  1 RMS(Cart)=  0.00007407 RMS(Int)=  0.00000027
 Iteration  2 RMS(Cart)=  0.00000001 RMS(Int)=  0.00000027
 Variable       Old X    -DE/DX   Delta X   Delta X   Delta X     New X
                                 (Linear)    (Quad)   (Total)
    R1        2.08678  -0.00001   0.00000  -0.00003  -0.00002   2.08676
    R2        2.09191  -0.00002  -0.00003  -0.00003  -0.00006   2.09184
    R3        2.09191  -0.00002  -0.00003  -0.00003  -0.00006   2.09184
    R4        2.97997   0.00000   0.00004  -0.00004   0.00000   2.97997
    R5        2.37280   0.00001   0.00002   0.00000   0.00002   2.37282
    R6        2.37455   0.00001   0.00002   0.00000   0.00002   2.37458
    A1        1.90654   0.00001   0.00005   0.00006   0.00011   1.90665
    A2        1.90654   0.00001   0.00005   0.00006   0.00011   1.90665
    A3        1.95917  -0.00002  -0.00010  -0.00006  -0.00017   1.95901
    A4        1.85153   0.00001   0.00016  -0.00001   0.00015   1.85168
    A5        1.91844  -0.00001  -0.00007  -0.00002  -0.00009   1.91836
    A6        1.91845  -0.00001  -0.00007  -0.00002  -0.00009   1.91836
    A7        2.01989   0.00000  -0.00002   0.00002  -0.00001   2.01988
    A8        1.99646   0.00000  -0.00003   0.00005   0.00001   1.99647
    A9        2.26684   0.00000   0.00006  -0.00006  -0.00001   2.26683
    D1       -0.00001   0.00000   0.00001   0.00000   0.00001   0.00000
    D2       -3.14158   0.00000  -0.00001   0.00000  -0.00001  -3.14159
    D3       -2.12576   0.00000   0.00006  -0.00001   0.00005  -2.12571
    D4        1.01586   0.00000   0.00005  -0.00002   0.00003   1.01589
    D5        2.12574   0.00000  -0.00005   0.00002  -0.00003   2.12571
    D6       -1.01583   0.00000  -0.00006   0.00001  -0.00005  -1.01588
         Item               Value     Threshold  Converged?
 Maximum Force            0.000018     0.000015     NO 
 RMS     Force            0.000010     0.000010     YES
 Maximum Displacement     0.000198     0.000060     NO 
 RMS     Displacement     0.000074     0.000040     NO 
 Predicted change in Energy=-6.309748D-09
 GradGradGradGradGradGradGradGradGradGradGradGradGradGradGradGradGradGrad

                          Input orientation:                          
 ---------------------------------------------------------------------
 Center     Atomic      Atomic             Coordinates (Angstroms)
 Number     Number       Type             X           Y           Z
 ---------------------------------------------------------------------
      1          6           0       -0.514185    0.459860    0.013692
      2          1           0       -0.925050    0.865260    0.955095
      3          1           0       -0.895032   -0.568442   -0.137641
      4          1           0       -0.895033    1.056488   -0.837391
      5          6           0        1.062709    0.455512    0.003593
      6          8           0        1.615709    0.901383    1.038983
      7          8           0        1.573604    0.001449   -1.050821
 ---------------------------------------------------------------------
                    Distance matrix (angstroms):
                    1          2          3          4          5
     1  C    0.000000
     2  H    1.104264   0.000000
     3  H    1.106956   1.802908   0.000000
     4  H    1.106956   1.802908   1.769195   0.000000
     5  C    1.576932   2.241525   2.213861   2.213861   0.000000
     6  O    2.404707   2.542400   3.138256   3.138258   1.255644
     7  O    2.387926   3.318605   2.693109   2.693108   1.256573
                    6          7
     6  O    0.000000
     7  O    2.275727   0.000000
 Stoichiometry    C2H3O2(1-)
 Framework group  C1[X(C2H3O2)]
 Deg. of freedom    15
 Full point group                 C1      NOp   1
 Largest Abelian subgroup         C1      NOp   1
 Largest concise Abelian subgroup C1      NOp   1
                         Standard orientation:                         
 ---------------------------------------------------------------------
 Center     Atomic      Atomic             Coordinates (Angstroms)
 Number     Number       Type             X           Y           Z
 ---------------------------------------------------------------------
      1          6           0       -1.354898    0.052148    0.000000
      2          1           0       -1.737743    1.087922   -0.000002
      3          1           0       -1.750442   -0.483000    0.884599
      4          1           0       -1.750442   -0.483004   -0.884596
      5          6           0        0.221114   -0.001716    0.000000
      6          8           0        0.804559    1.110144    0.000000
      7          8           0        0.700607   -1.163208    0.000000
 ---------------------------------------------------------------------
 Rotational constants (GHZ):     11.3261546      9.8769627      5.4556867
 Standard basis: CC-pVDZ (5D, 7F)
 There are    75 symmetry adapted cartesian basis functions of A   symmetry.
 There are    71 symmetry adapted basis functions of A   symmetry.
    71 basis functions,   153 primitive gaussians,    75 cartesian basis functions
    16 alpha electrons       16 beta electrons
       nuclear repulsion energy       111.1711238055 Hartrees.
 NAtoms=    7 NActive=    7 NUniq=    7 SFac= 1.00D+00 NAtFMM=   60 NAOKFM=F Big=F
 Integral buffers will be    131072 words long.
 Raffenetti 2 integral format.
 Two-electron integral symmetry is turned on.
 One-electron integrals computed using PRISM.
 NBasis=    71 RedAO= T EigKep=  6.56D-03  NBF=    71
 NBsUse=    71 1.00D-06 EigRej= -1.00D+00 NBFU=    71
 Initial guess from the checkpoint file:  "oac.chk"
 B after Tr=     0.000000    0.000000    0.000000
         Rot=    1.000000    0.000000    0.000000   -0.000020 Ang=   0.00 deg.
 Keep R1 ints in memory in canonical form, NReq=4198417.
 Requested convergence on RMS density matrix=1.00D-08 within 128 cycles.
 Requested convergence on MAX density matrix=1.00D-06.
 Requested convergence on             energy=1.00D-06.
 No special actions if energy rises.
 SCF Done:  E(RB3LYP) =  -228.513248629     A.U. after    5 cycles
            NFock=  5  Conv=0.83D-08     -V/T= 2.0057
 Calling FoFJK, ICntrl=      2127 FMM=F ISym2X=0 I1Cent= 0 IOpClX= 0 NMat=1 NMatS=1 NMatT=0.
 ***** Axes restored to original set *****
 -------------------------------------------------------------------
 Center     Atomic                   Forces (Hartrees/Bohr)
 Number     Number              X              Y              Z
 -------------------------------------------------------------------
      1        6          -0.000002929    0.000003586    0.000008345
      2        1           0.000007952    0.000001269    0.000002942
      3        1          -0.000002414    0.000002074    0.000002396
      4        1          -0.000002410    0.000000318    0.000003153
      5        6          -0.000000470   -0.000002645   -0.000006128
      6        8           0.000005285   -0.000002558   -0.000005951
      7        8          -0.000005015   -0.000002043   -0.000004756
 -------------------------------------------------------------------
 Cartesian Forces:  Max     0.000008345 RMS     0.000004157

 GradGradGradGradGradGradGradGradGradGradGradGradGradGradGradGradGradGrad
 Berny optimization.
 Using GEDIIS/GDIIS optimizer.
 FormGI is forming the generalized inverse of G from B-inverse, IUseBI=4.
 Internal  Forces:  Max     0.000002837 RMS     0.000001229
 Search for a local minimum.
 Step number   8 out of a maximum of  100
 All quantities printed in internal units (Hartrees-Bohrs-Radians)
 Mixed Optimization -- En-DIIS/RFO-DIIS
 Swapping is turned off.
 Update second derivatives using D2CorX and points    1    2    3    4    5
                                                      6    7    8
 DE= -3.48D-09 DEPred=-6.31D-09 R= 5.51D-01
 Trust test= 5.51D-01 RLast= 3.25D-04 DXMaxT set to 2.43D-01
 ITU=  0  0  1 -1  1  1  1  0
     Eigenvalues ---    0.00652   0.06881   0.07167   0.08354   0.10715
     Eigenvalues ---    0.14801   0.16739   0.18355   0.25148   0.32949
     Eigenvalues ---    0.34773   0.37292   0.37525   0.76505   0.78119
 En-DIIS/RFO-DIIS IScMMF=        0 using points:     8    7    6    5    4
 RFO step:  Lambda= 0.00000000D+00.
 DidBck=F Rises=F RFO-DIIS coefs:    1.09763   -0.10382    0.00174    0.00032    0.00413
 Iteration  1 RMS(Cart)=  0.00000974 RMS(Int)=  0.00000003
 Iteration  2 RMS(Cart)=  0.00000000 RMS(Int)=  0.00000003
 Variable       Old X    -DE/DX   Delta X   Delta X   Delta X     New X
                                 (Linear)    (Quad)   (Total)
    R1        2.08676   0.00000   0.00000  -0.00001  -0.00001   2.08675
    R2        2.09184   0.00000   0.00000   0.00000   0.00000   2.09184
    R3        2.09184   0.00000   0.00000   0.00000   0.00000   2.09184
    R4        2.97997   0.00000  -0.00001   0.00001   0.00000   2.97997
    R5        2.37282   0.00000   0.00000   0.00000   0.00000   2.37282
    R6        2.37458   0.00000   0.00000   0.00000   0.00000   2.37458
    A1        1.90665   0.00000   0.00001   0.00001   0.00002   1.90667
    A2        1.90665   0.00000   0.00001   0.00001   0.00002   1.90667
    A3        1.95901   0.00000  -0.00001  -0.00001  -0.00002   1.95899
    A4        1.85168   0.00000   0.00000  -0.00002  -0.00001   1.85167
    A5        1.91836   0.00000   0.00000   0.00000   0.00000   1.91835
    A6        1.91836   0.00000   0.00000   0.00000   0.00000   1.91835
    A7        2.01988   0.00000   0.00000  -0.00001  -0.00001   2.01988
    A8        1.99647   0.00000   0.00000   0.00000   0.00001   1.99648
    A9        2.26683   0.00000  -0.00001   0.00000   0.00000   2.26683
    D1        0.00000   0.00000   0.00000   0.00000   0.00000   0.00000
    D2       -3.14159   0.00000   0.00000   0.00000   0.00000  -3.14159
    D3       -2.12571   0.00000   0.00000  -0.00001  -0.00001  -2.12572
[...]
 Frequencies --     39.7944               417.5917               604.1274
 Red. masses --      1.0858                 2.8280                 2.1295
 Frc consts  --      0.0010                 0.2906                 0.4579
 IR Inten    --      0.6599                 0.7701                 4.1827
  Atom  AN      X      Y      Z        X      Y      Z        X      Y      Z
     1   6     0.00   0.00   0.01    -0.01   0.18   0.00     0.00   0.00  -0.04
     2   1     0.00   0.00   0.53     0.53   0.36   0.00     0.00   0.00   0.35
     3   1    -0.05  -0.50  -0.32    -0.28   0.38   0.01     0.60  -0.06   0.18
     4   1     0.05   0.50  -0.32    -0.28   0.38  -0.01    -0.60   0.06   0.18
     5   6     0.00   0.00   0.02    -0.01  -0.14   0.00     0.00   0.00  -0.27
     6   8     0.00   0.00  -0.06    -0.19  -0.04   0.00     0.00   0.00   0.09
     7   8     0.00   0.00   0.04     0.21  -0.05   0.00     0.00   0.00   0.10
                      4                      5                      6
                      A                      A                      A
 Frequencies --    611.4816               855.6104               963.7586
 Red. masses --      5.1765                 7.9246                 1.5031
 Frc consts  --      1.1404                 3.4181                 0.8226
 IR Inten    --      3.3554                79.4944                 7.2171
  Atom  AN      X      Y      Z        X      Y      Z        X      Y      Z
     1   6     0.43   0.00   0.00    -0.28   0.00   0.00     0.00   0.18   0.00
     2   1     0.48   0.01   0.00    -0.38  -0.01   0.00    -0.77  -0.10   0.00
     3   1     0.47  -0.02   0.00    -0.40   0.05   0.00     0.37  -0.20  -0.07
     4   1     0.47  -0.02   0.00    -0.40   0.05   0.00     0.37  -0.20   0.07
     5   6     0.03  -0.01   0.00     0.45  -0.02   0.00     0.01  -0.02   0.00
     6   8    -0.23   0.15   0.00    -0.01   0.36   0.00    -0.05  -0.04   0.00
     7   8    -0.21  -0.15   0.00    -0.04  -0.35   0.00     0.05  -0.04   0.00
                      7                      8                      9
                      A                      A                      A
 Frequencies --   1005.1970              1280.5920              1359.7412
 Red. masses --      2.0977                 1.3015                 8.5810
 Frc consts  --      1.2488                 1.2575                 9.3476
 IR Inten    --      3.3837                 1.1570               295.2591
  Atom  AN      X      Y      Z        X      Y      Z        X      Y      Z
     1   6     0.00   0.00   0.17     0.15   0.00   0.00    -0.11  -0.03   0.00
     2   1     0.00   0.00  -0.31    -0.52  -0.22   0.00     0.18   0.10   0.00
     3   1    -0.61  -0.05  -0.15    -0.53   0.12  -0.19     0.30   0.13   0.27
     4   1     0.61   0.05  -0.15    -0.53   0.12   0.19     0.30   0.13  -0.27
     5   6     0.00   0.00  -0.25     0.04   0.00   0.00     0.57  -0.03   0.00
     6   8     0.00   0.00   0.05    -0.02  -0.03   0.00    -0.21  -0.29   0.00
     7   8     0.00   0.00   0.05    -0.02   0.03   0.00    -0.18   0.30   0.00
                     10                     11                     12
                      A                      A                      A
 Frequencies --   1429.5404              1441.1490              1743.8179
 Red. masses --      1.0750                 1.0539                10.7513
 Frc consts  --      1.2943                 1.2897                19.2625
 IR Inten    --      9.7070                 0.2637               416.0504
  Atom  AN      X      Y      Z        X      Y      Z        X      Y      Z
     1   6     0.01  -0.06   0.00     0.00   0.00  -0.06     0.00  -0.04   0.00
     2   1    -0.32  -0.15   0.00     0.00   0.00   0.74     0.29   0.12   0.00
     3   1     0.15   0.51   0.39    -0.29   0.37   0.06    -0.15  -0.08  -0.12
     4   1     0.15   0.51  -0.39     0.29  -0.37   0.06    -0.15  -0.08   0.12
     5   6    -0.03   0.02   0.00     0.00   0.00  -0.02     0.04   0.79   0.00
     6   8     0.00   0.00   0.00     0.00   0.00   0.00    -0.13  -0.28   0.00
     7   8     0.01  -0.02   0.00     0.00   0.00   0.00     0.11  -0.28   0.00
                     13                     14                     15
                      A                      A                      A
 Frequencies --   2976.6431              3041.1556              3065.0242
 Red. masses --      1.0327                 1.0995                 1.1042
 Frc consts  --      5.3911                 5.9913                 6.1120
 IR Inten    --     51.5699                79.3239                95.7799
  Atom  AN      X      Y      Z        X      Y      Z        X      Y      Z
     1   6     0.05   0.01   0.00     0.00   0.00   0.09     0.00  -0.09   0.00
     2   1    -0.16   0.50   0.00     0.00   0.00   0.02    -0.28   0.80   0.00
     3   1    -0.19  -0.29   0.49     0.25   0.35  -0.56     0.13   0.16  -0.30
     4   1    -0.19  -0.29  -0.49    -0.25  -0.35  -0.56     0.13   0.16   0.30
     5   6     0.00   0.00   0.00     0.00   0.00   0.00     0.00  -0.01   0.00
     6   8     0.00   0.00   0.00     0.00   0.00   0.00     0.00   0.00   0.00
     7   8     0.00   0.00   0.00     0.00   0.00   0.00     0.00   0.00   0.00

 -------------------
 - Thermochemistry -
 -------------------
 Temperature   298.150 Kelvin.  Pressure   1.00000 Atm.
 Atom     1 has atomic number  6 and mass  12.00000
 Atom     2 has atomic number  1 and mass   1.00783
 Atom     3 has atomic number  1 and mass   1.00783
 Atom     4 has atomic number  1 and mass   1.00783
 Atom     5 has atomic number  6 and mass  12.00000
 Atom     6 has atomic number  8 and mass  15.99491
 Atom     7 has atomic number  8 and mass  15.99491
 Molecular mass:    59.01330 amu.
 Principal axes and moments of inertia in atomic units:
                           1         2         3
     Eigenvalues --   159.34280 182.72229 330.80001
           X            0.99949  -0.03183   0.00000
           Y            0.03183   0.99949   0.00000
           Z            0.00000   0.00000   1.00000
 This molecule is an asymmetric top.
 Rotational symmetry number  1.
 Rotational temperatures (Kelvin)      0.54357     0.47402     0.26183
 Rotational constants (GHZ):          11.32615     9.87696     5.45569
 Zero-point vibrational energy     124622.3 (Joules/Mol)
                                   29.78545 (Kcal/Mol)
 Warning -- explicit consideration of   4 degrees of freedom as
           vibrations may cause significant error
 Vibrational temperatures:     57.26   600.82   869.20   879.78  1231.03
          (Kelvin)           1386.63  1446.25  1842.48  1956.36  2056.79
                             2073.49  2508.96  4282.72  4375.54  4409.88
 
 Zero-point correction=                           0.047466 (Hartree/Particle)
 Thermal correction to Energy=                    0.051937
 Thermal correction to Enthalpy=                  0.052881
 Thermal correction to Gibbs Free Energy=         0.019897
 Sum of electronic and zero-point Energies=           -228.465782
 Sum of electronic and thermal Energies=              -228.461312
 Sum of electronic and thermal Enthalpies=            -228.460367
 Sum of electronic and thermal Free Energies=         -228.493352
 
                     E (Thermal)             CV                S
                      KCal/Mol        Cal/Mol-Kelvin    Cal/Mol-Kelvin
 Total                   32.591             13.257             69.421
 Electronic               0.000              0.000              0.000
 Translational            0.889              2.981             38.146
 Rotational               0.889              2.981             23.781
 Vibrational             30.813              7.296              7.495
 Vibration     1          0.594              1.981              5.269
 Vibration     2          0.781              1.432              0.900
 Vibration     3          0.963              1.023              0.443
 Vibration     4          0.971              1.008              0.430
                       Q            Log10(Q)             Ln(Q)
 Total Bot       0.704873D-09         -9.151889        -21.073003
 Total V=0       0.479701D+13         12.680971         29.199014
 Vib (Bot)       0.112600D-20        -20.948460        -48.235612
 Vib (Bot)    1  0.519939D+01          0.715953          1.648542
 Vib (Bot)    2  0.421254D+00         -0.375456         -0.864520
 Vib (Bot)    3  0.246116D+00         -0.608860         -1.401952
 Vib (Bot)    4  0.241305D+00         -0.617433         -1.421692
 Vib (V=0)       0.766301D+01          0.884399          2.036405
 Vib (V=0)    1  0.572338D+01          0.757653          1.744559
 Vib (V=0)    2  0.115380D+01          0.062131          0.143061
 Vib (V=0)    3  0.105729D+01          0.024195          0.055710
 Vib (V=0)    4  0.105518D+01          0.023328          0.053714
 Electronic      0.100000D+01          0.000000          0.000000
 Translational   0.178189D+08          7.250880         16.695768
 Rotational      0.351311D+05          4.545691         10.466841
 ***** Axes restored to original set *****
 -------------------------------------------------------------------
 Center     Atomic                   Forces (Hartrees/Bohr)
 Number     Number              X              Y              Z
 -------------------------------------------------------------------
      1        6          -0.000002949    0.000003584    0.000008331
      2        1           0.000007950    0.000001274    0.000002953
      3        1          -0.000002414    0.000002072    0.000002394
      4        1          -0.000002411    0.000000316    0.000003153
      5        6          -0.000000448   -0.000002625   -0.000006094
      6        8           0.000005279   -0.000002559   -0.000005945
      7        8          -0.000005007   -0.000002063   -0.000004793
 -------------------------------------------------------------------
 Cartesian Forces:  Max     0.000008331 RMS     0.000004155
 FormGI is forming the generalized inverse of G from B-inverse, IUseBI=4.

 GradGradGradGradGradGradGradGradGradGradGradGradGradGradGradGradGradGrad
 Berny optimization.
 Internal  Forces:  Max     0.000002825 RMS     0.000001225
 Search for a local minimum.
 Step number   1 out of a maximum of    2
 All quantities printed in internal units (Hartrees-Bohrs-Radians)
 Second derivative matrix not updated -- analytic derivatives used.
 ITU=  0
     Eigenvalues ---    0.00009   0.05093   0.05482   0.07862   0.10268
     Eigenvalues ---    0.10789   0.12473   0.16895   0.23101   0.32186
     Eigenvalues ---    0.32514   0.33182   0.33515   0.59363   0.74771
 Angle between quadratic step and forces=  27.31 degrees.
 Linear search not attempted -- first point.
 Iteration  1 RMS(Cart)=  0.00001349 RMS(Int)=  0.00000000
 Iteration  2 RMS(Cart)=  0.00000000 RMS(Int)=  0.00000000
 Variable       Old X    -DE/DX   Delta X   Delta X   Delta X     New X
                                 (Linear)    (Quad)   (Total)
    R1        2.08676   0.00000   0.00000  -0.00001  -0.00001   2.08675
    R2        2.09184   0.00000   0.00000   0.00000   0.00000   2.09185
    R3        2.09184   0.00000   0.00000   0.00000   0.00000   2.09185
    R4        2.97997   0.00000   0.00000   0.00000   0.00000   2.97997
    R5        2.37282   0.00000   0.00000   0.00000   0.00000   2.37283
    R6        2.37458   0.00000   0.00000   0.00000   0.00000   2.37458
    A1        1.90665   0.00000   0.00000   0.00002   0.00002   1.90667
    A2        1.90665   0.00000   0.00000   0.00002   0.00002   1.90667
    A3        1.95901   0.00000   0.00000  -0.00002  -0.00002   1.95899
    A4        1.85168   0.00000   0.00000  -0.00002  -0.00002   1.85166
    A5        1.91836   0.00000   0.00000   0.00000   0.00000   1.91835
    A6        1.91836   0.00000   0.00000   0.00000   0.00000   1.91835
    A7        2.01988   0.00000   0.00000  -0.00001  -0.00001   2.01987
    A8        1.99647   0.00000   0.00000   0.00001   0.00001   1.99649
    A9        2.26683   0.00000   0.00000   0.00000   0.00000   2.26683
    D1        0.00000   0.00000   0.00000   0.00000   0.00000   0.00000
    D2       -3.14159   0.00000   0.00000   0.00000   0.00000  -3.14159
    D3       -2.12571   0.00000   0.00000  -0.00002  -0.00002  -2.12572
    D4        1.01589   0.00000   0.00000  -0.00002  -0.00002   1.01587
    D5        2.12571   0.00000   0.00000   0.00001   0.00001   2.12572
    D6       -1.01588   0.00000   0.00000   0.00001   0.00001  -1.01587
         Item               Value     Threshold  Converged?
 Maximum Force            0.000003     0.000450     YES
 RMS     Force            0.000001     0.000300     YES
 Maximum Displacement     0.000044     0.001800     YES
 RMS     Displacement     0.000013     0.001200     YES
 Predicted change in Energy=-1.391280D-10
 Optimization completed.
    -- Stationary point found.
                           ----------------------------
                           !   Optimized Parameters   !
                           ! (Angstroms and Degrees)  !
 --------------------------                            --------------------------
 ! Name  Definition              Value          Derivative Info.                !
 --------------------------------------------------------------------------------
 ! R1    R(1,2)                  1.1043         -DE/DX =    0.0                 !
 ! R2    R(1,3)                  1.107          -DE/DX =    0.0                 !
 ! R3    R(1,4)                  1.107          -DE/DX =    0.0                 !
 ! R4    R(1,5)                  1.5769         -DE/DX =    0.0                 !
 ! R5    R(5,6)                  1.2556         -DE/DX =    0.0                 !
 ! R6    R(5,7)                  1.2566         -DE/DX =    0.0                 !
 ! A1    A(2,1,3)              109.2429         -DE/DX =    0.0                 !
 ! A2    A(2,1,4)              109.2429         -DE/DX =    0.0                 !
 ! A3    A(2,1,5)              112.2429         -DE/DX =    0.0                 !
 ! A4    A(3,1,4)              106.0934         -DE/DX =    0.0                 !
 ! A5    A(3,1,5)              109.9137         -DE/DX =    0.0                 !
 ! A6    A(4,1,5)              109.9137         -DE/DX =    0.0                 !
 ! A7    A(1,5,6)              115.7307         -DE/DX =    0.0                 !
 ! A8    A(1,5,7)              114.3895         -DE/DX =    0.0                 !
 ! A9    A(6,5,7)              129.8798         -DE/DX =    0.0                 !
 ! D1    D(2,1,5,6)              0.0001         -DE/DX =    0.0                 !
 ! D2    D(2,1,5,7)           -179.9999         -DE/DX =    0.0                 !
 ! D3    D(3,1,5,6)           -121.794          -DE/DX =    0.0                 !
 ! D4    D(3,1,5,7)             58.206          -DE/DX =    0.0                 !
 ! D5    D(4,1,5,6)            121.7943         -DE/DX =    0.0                 !
 ! D6    D(4,1,5,7)            -58.2058         -DE/DX =    0.0                 !
 --------------------------------------------------------------------------------
 GradGradGradGradGradGradGradGradGradGradGradGradGradGradGradGradGradGrad

 1\1\GINC-BARREL\Freq\RB3LYP\CC-pVDZ\C2H3O2(1-)\FLORIAN\19-Nov-2020\0\\
 # b3lyp/cc-pvdz freq geom=allcheck\\opt of oac coords\\-1,1\C,-0.51418
 53251,0.459860145,0.013691741\H,-0.9250499762,0.8652599532,0.955095321
 7\H,-0.8950323626,-0.5684424367,-0.1376407151\H,-0.8950334873,1.056488
 2258,-0.8373909537\C,1.0627086279,0.4555121404,0.0035930753\O,1.615708
 998,0.901383273,1.0389825004\O,1.5736035253,0.0014486993,-1.0508209697
 \\Version=ES64L-G09RevD.01\State=1-A\HF=-228.5132486\RMSD=4.935e-09\RM
 SF=4.155e-06\ZeroPoint=0.0474661\Thermal=0.051937\Dipole=-1.13337,-0.0
 011911,-0.0027641\DipoleDeriv=-0.4832182,-0.0060365,-0.0140165,-0.0079
 934,0.2035918,0.0172347,-0.0185603,0.0172347,0.236192,-0.07157,0.03558
 ,0.0826226,0.0619531,-0.0308212,-0.0802822,0.1438649,-0.0802822,-0.182
 6772,-0.0408281,-0.0754786,-0.004156,-0.1362112,-0.2127827,-0.0365012,
 -0.0147532,-0.0526373,0.0164767,-0.0408284,0.0488442,-0.0576937,0.0828
 762,-0.0472672,0.1039008,-0.1090998,0.1200368,-0.1490385,1.6778502,0.0
 008523,0.001977,-0.0033517,0.3022137,0.5950441,-0.0077851,0.595044,1.4
 277642,-1.0236415,-0.1559573,-0.3621592,-0.1109864,-0.587651,-0.302660
 8,-0.2577291,-0.3026608,-1.1601461,-1.0177641,0.152196,0.3534259,0.113
 7134,-0.6272834,-0.2967354,0.2640626,-0.2967354,-1.1885711\Polar=33.55
 20403,0.0256408,23.6797118,0.0595363,4.5253201,32.2395428\PG=C01 [X(C2
 H3O2)]\NImag=0\\0.37880872,-0.00373641,0.50958617,-0.00867627,0.024597
 33,0.55611307,-0.07344652,0.03289840,0.07639532,0.07647775,0.03413864,
 -0.08068669,-0.08121071,-0.03721550,0.08336680,0.07927540,-0.08121072,
 -0.23429900,-0.08642037,0.09020735,0.25399648,-0.06674045,-0.08403989,
 -0.00700453,0.00243304,0.01110358,0.00063832,0.07037283,-0.07829597,-0
 .26471279,-0.03305407,-0.00307695,-0.00942708,-0.00003440,0.08588771,0
 .28852104,-0.00915661,-0.03498253,-0.04582051,-0.00948496,-0.02442078,
 -0.00177307,0.01235310,0.03653611,0.04692040,-0.06674064,0.05265735,-0
 .06587109,0.00243305,-0.00716583,0.00850575,0.00272703,-0.00595635,0.0
 0850314,0.07037302,0.04714698,-0.11520421,0.10641681,-0.00477690,0.006
 82170,-0.00905327,0.01027065,-0.01687086,0.02346903,-0.05004114,0.1245
 1188,-0.06317674,0.10834528,-0.19532895,-0.00875293,0.01533308,-0.0180
 2185,0.00151526,-0.00253851,0.00292443,0.07088882,-0.11857734,0.210929
 41,-0.10283604,0.00103311,0.00239912,0.00227106,-0.00178154,-0.0041370
 2,-0.00329387,0.00403846,-0.00112112,-0.00329386,-0.00358949,0.0021637
 3,0.50890266,-0.00022299,-0.07914661,0.00853220,0.01332193,-0.00354316
 ,-0.00188840,-0.03194693,-0.00097503,-0.00206592,0.01836971,0.00103551
 ,-0.00237260,0.00378421,0.35756379,-0.00051776,0.00853220,-0.06300762,
 0.03093565,-0.00188840,-0.00711517,-0.00493018,-0.00427408,-0.00316229
 ,-0.02659824,-0.00016445,-0.00517284,0.00878733,0.27046824,0.86916568,
 -0.03563378,-0.01531500,-0.03556406,0.00248203,-0.00040212,-0.00093381
 ,-0.00670956,-0.00215744,-0.00212104,-0.00670960,-0.00005858,-0.003024
 89,-0.20870958,-0.07238721,-0.16809552,0.21253263,-0.00908731,0.017531
 38,-0.01313354,-0.00200756,0.00054614,0.00179746,0.00354525,0.00109600
 ,0.00138479,-0.00440807,-0.00050225,-0.00032572,-0.06999771,-0.1353640
 7,-0.13515773,0.08734702,0.10842454,-0.02110228,-0.01313352,-0.0073111
 8,-0.00466187,0.00179746,0.00394609,-0.00271429,0.00118585,0.00049938,
 0.00071065,-0.00012678,0.00209764,-0.16254668,-0.13515773,-0.39102040,
 0.20283473,0.19048484,0.46873437,-0.03341130,0.01650243,0.03832150,-0.
 01265041,0.00132277,0.00307173,0.00121097,-0.00043947,0.00102750,0.001
 21099,0.00104848,0.00038674,-0.19304037,0.06908128,0.16041871,0.042747
 86,-0.00539161,-0.01252026,0.19393227,0.01005706,0.01263275,-0.0121480
 2,0.00085658,0.00292229,0.00018199,0.00517962,0.00236871,0.00007929,-0
 .00345567,0.00020822,0.00013579,0.06651296,-0.13957043,-0.13751579,0.0
 0297333,0.00826825,-0.04505011,-0.08212388,0.11317022,0.02335426,-0.01
 214804,-0.01034582,0.00198916,0.00018199,0.00326652,0.00014232,0.00217
 910,0.00041166,0.00386096,-0.00196401,0.00257215,0.15445464,-0.1375157
 8,-0.39968736,0.00690458,-0.04505011,-0.07694590,-0.19070593,0.1943168
 5,0.48072875\\0.00000295,-0.00000358,-0.00000833,-0.00000795,-0.000001
 27,-0.00000295,0.00000241,-0.00000207,-0.00000239,0.00000241,-0.000000
 32,-0.00000315,0.00000045,0.00000262,0.00000609,-0.00000528,0.00000256
 ,0.00000595,0.00000501,0.00000206,0.00000479\\\@


 LAW OF COMPENSATION:
      NO CALCULATION IS EVER A COMPLETE FAILURE; IT 
      CAN ALWAYS SERVE AS A BAD EXAMPLE.

                                           -- ANON
 Job cpu time:       0 days  0 hours  0 minutes 34.2 seconds.
 File lengths (MBytes):  RWF=      8 Int=      0 D2E=      0 Chk=      2 Scr=      1
 Normal termination of Gaussian 09 at Thu Nov 19 17:27:55 2020.
