 Entering Gaussian System, Link 0=g09
 Initial command:
 /opt/g09/l1.exe "/scratch/data/florian/gaussian_scratch/Gau-4110.inp" -scrdir="/scratch/data/florian/gaussian_scratch/"
 Entering Link 1 = /opt/g09/l1.exe PID=      4112.
  
 Copyright (c) 1988,1990,1992,1993,1995,1998,2003,2009,2013,
            Gaussian, Inc.  All Rights Reserved.
  
 This is part of the Gaussian(R) 09 program.  It is based on
 the Gaussian(R) 03 system (copyright 2003, Gaussian, Inc.),
 the Gaussian(R) 98 system (copyright 1998, Gaussian, Inc.),
 the Gaussian(R) 94 system (copyright 1995, Gaussian, Inc.),
 the Gaussian 92(TM) system (copyright 1992, Gaussian, Inc.),
 the Gaussian 90(TM) system (copyright 1990, Gaussian, Inc.),
 the Gaussian 88(TM) system (copyright 1988, Gaussian, Inc.),
 the Gaussian 86(TM) system (copyright 1986, Carnegie Mellon
 University), and the Gaussian 82(TM) system (copyright 1983,
 Carnegie Mellon University). Gaussian is a federally registered
 trademark of Gaussian, Inc.
  
 This software contains proprietary and confidential information,
 including trade secrets, belonging to Gaussian, Inc.
  
 This software is provided under written license and may be
 used, copied, transmitted, or stored only in accord with that
 written license.
  
 The following legend is applicable only to US Government
 contracts under FAR:
  
                    RESTRICTED RIGHTS LEGEND
  
 Use, reproduction and disclosure by the US Government is
 subject to restrictions as set forth in subparagraphs (a)
 and (c) of the Commercial Computer Software - Restricted
 Rights clause in FAR 52.227-19.
  
 Gaussian, Inc.
 340 Quinnipiac St., Bldg. 40, Wallingford CT 06492
  
  
 ---------------------------------------------------------------
 Warning -- This program may not be used in any manner that
 competes with the business of Gaussian, Inc. or will provide
 assistance to any competitor of Gaussian, Inc.  The licensee
 of this program is prohibited from giving any competitor of
 Gaussian, Inc. access to this program.  By using this program,
 the user acknowledges that Gaussian, Inc. is engaged in the
 business of creating and licensing software in the field of
 computational chemistry and represents and warrants to the
 licensee that it is not a competitor of Gaussian, Inc. and that
 it will not use this program in any manner prohibited above.
 ---------------------------------------------------------------
  

 Cite this work as:
 Gaussian 09, Revision D.01,
 M. J. Frisch, G. W. Trucks, H. B. Schlegel, G. E. Scuseria, 
 M. A. Robb, J. R. Cheeseman, G. Scalmani, V. Barone, B. Mennucci, 
 G. A. Petersson, H. Nakatsuji, M. Caricato, X. Li, H. P. Hratchian, 
 A. F. Izmaylov, J. Bloino, G. Zheng, J. L. Sonnenberg, M. Hada, 
 M. Ehara, K. Toyota, R. Fukuda, J. Hasegawa, M. Ishida, T. Nakajima, 
 Y. Honda, O. Kitao, H. Nakai, T. Vreven, J. A. Montgomery, Jr., 
 J. E. Peralta, F. Ogliaro, M. Bearpark, J. J. Heyd, E. Brothers, 
 K. N. Kudin, V. N. Staroverov, T. Keith, R. Kobayashi, J. Normand, 
 K. Raghavachari, A. Rendell, J. C. Burant, S. S. Iyengar, J. Tomasi, 
 M. Cossi, N. Rega, J. M. Millam, M. Klene, J. E. Knox, J. B. Cross, 
 V. Bakken, C. Adamo, J. Jaramillo, R. Gomperts, R. E. Stratmann, 
 O. Yazyev, A. J. Austin, R. Cammi, C. Pomelli, J. W. Ochterski, 
 R. L. Martin, K. Morokuma, V. G. Zakrzewski, G. A. Voth, 
 P. Salvador, J. J. Dannenberg, S. Dapprich, A. D. Daniels, 
 O. Farkas, J. B. Foresman, J. V. Ortiz, J. Cioslowski, 
 and D. J. Fox, Gaussian, Inc., Wallingford CT, 2013.
 
 ******************************************
 Gaussian 09:  ES64L-G09RevD.01 24-Apr-2013
                26-Nov-2020 
 ******************************************
 %chk=im1.chk
 %mem=4GB
 %NPROCSHARED=3
 Will use up to    3 processors via shared memory.
 ---------------------------------------------------------
 # b3lyp/cc-pvdz opt=(tight, maxcycle=200) density=current
 ---------------------------------------------------------
 1/6=200,7=10,14=-1,18=20,19=15,26=3,38=1/1,3;
 2/9=110,12=2,17=6,18=5,40=1/2;
 3/5=16,11=2,16=1,25=1,30=1,71=1,74=-5/1,2,3;
 4//1;
 5/5=2,38=5/2;
 6/7=2,8=2,9=2,10=2,22=-1,28=1/1;
 7//1,2,3,16;
 1/6=200,7=10,14=-1,18=20,19=15,26=3/3(2);
 2/9=110/2;
 99//99;
 2/9=110/2;
 3/5=16,11=2,16=1,25=1,30=1,71=1,74=-5/1,2,3;
 4/5=5,16=3,69=1/1;
 5/5=2,38=5/2;
 7//1,2,3,16;
 1/6=200,7=10,14=-1,18=20,19=15,26=3/3(-5);
 2/9=110/2;
 6/7=2,8=2,9=2,10=2,19=2,22=-1,28=1/1;
 99/9=1/99;
 ----------------------------------------------------------------------
 im1 opt of inital coordinates generqated with obabel, sorted as in cha
 rmm str file /site/raid1/florian/str/together/im1_h_oac.str
 ----------------------------------------------------------------------
 Symbolic Z-matrix:
 Charge =  0 Multiplicity = 1
 N1                    0.73818  -0.03374  -0.00287 
 C1                   -0.0945    1.04751   0.00702 
 N2                   -1.3561    0.6789    0.00901 
 C2                   -1.33125  -0.69217   0.00232 
 C3                   -0.03658  -1.15759  -0.00154 
 C4                    2.17686   0.01971  -0.01844 
 H1                    0.26315   2.06881   0.01125 
 H2                   -2.24591  -1.27074   0.00064 
 H3                    0.37333  -2.1575   -0.00582 
 H4                    2.58117  -0.99554  -0.00219 
 H5                    2.51381   0.568     0.86495 
 H6                    2.49366   0.5314   -0.93079 
 

 GradGradGradGradGradGradGradGradGradGradGradGradGradGradGradGradGradGrad
 Berny optimization.
 Initialization pass.
                           ----------------------------
                           !    Initial Parameters    !
                           ! (Angstroms and Degrees)  !
 --------------------------                            --------------------------
 ! Name  Definition              Value          Derivative Info.                !
 --------------------------------------------------------------------------------
 ! R1    R(1,2)                  1.3648         estimate D2E/DX2                !
 ! R2    R(1,5)                  1.365          estimate D2E/DX2                !
 ! R3    R(1,6)                  1.4398         estimate D2E/DX2                !
 ! R4    R(2,3)                  1.3143         estimate D2E/DX2                !
 ! R5    R(2,7)                  1.0821         estimate D2E/DX2                !
 ! R6    R(3,4)                  1.3713         estimate D2E/DX2                !
 ! R7    R(4,5)                  1.3758         estimate D2E/DX2                !
 ! R8    R(4,8)                  1.0823         estimate D2E/DX2                !
 ! R9    R(5,9)                  1.0807         estimate D2E/DX2                !
 ! R10   R(6,10)                 1.0929         estimate D2E/DX2                !
 ! R11   R(6,11)                 1.0929         estimate D2E/DX2                !
 ! R12   R(6,12)                 1.093          estimate D2E/DX2                !
 ! A1    A(2,1,5)              107.8173         estimate D2E/DX2                !
 ! A2    A(2,1,6)              125.4746         estimate D2E/DX2                !
 ! A3    A(5,1,6)              126.7075         estimate D2E/DX2                !
 ! A4    A(1,2,3)              111.3131         estimate D2E/DX2                !
 ! A5    A(1,2,7)              123.1007         estimate D2E/DX2                !
 ! A6    A(3,2,7)              125.5861         estimate D2E/DX2                !
 ! A7    A(2,3,4)              105.2481         estimate D2E/DX2                !
 ! A8    A(3,4,5)              110.8118         estimate D2E/DX2                !
 ! A9    A(3,4,8)              121.2772         estimate D2E/DX2                !
 ! A10   A(5,4,8)              127.911          estimate D2E/DX2                !
 ! A11   A(1,5,4)              104.8087         estimate D2E/DX2                !
 ! A12   A(1,5,9)              123.1268         estimate D2E/DX2                !
 ! A13   A(4,5,9)              132.0642         estimate D2E/DX2                !
 ! A14   A(1,6,10)             109.5734         estimate D2E/DX2                !
 ! A15   A(1,6,11)             108.5388         estimate D2E/DX2                !
 ! A16   A(1,6,12)             108.4239         estimate D2E/DX2                !
 ! A17   A(10,6,11)            109.8735         estimate D2E/DX2                !
 ! A18   A(10,6,12)            109.8819         estimate D2E/DX2                !
 ! A19   A(11,6,12)            110.5163         estimate D2E/DX2                !
 ! D1    D(5,1,2,3)             -0.261          estimate D2E/DX2                !
 ! D2    D(5,1,2,7)            179.8112         estimate D2E/DX2                !
 ! D3    D(6,1,2,3)            179.4661         estimate D2E/DX2                !
 ! D4    D(6,1,2,7)             -0.4617         estimate D2E/DX2                !
 ! D5    D(2,1,5,4)              0.3026         estimate D2E/DX2                !
 ! D6    D(2,1,5,9)           -179.8533         estimate D2E/DX2                !
 ! D7    D(6,1,5,4)           -179.4202         estimate D2E/DX2                !
 ! D8    D(6,1,5,9)              0.4239         estimate D2E/DX2                !
 ! D9    D(2,1,6,10)           178.8071         estimate D2E/DX2                !
 ! D10   D(2,1,6,11)            58.8218         estimate D2E/DX2                !
 ! D11   D(2,1,6,12)           -61.2668         estimate D2E/DX2                !
 ! D12   D(5,1,6,10)            -1.517          estimate D2E/DX2                !
 ! D13   D(5,1,6,11)          -121.5023         estimate D2E/DX2                !
 ! D14   D(5,1,6,12)           118.4092         estimate D2E/DX2                !
 ! D15   D(1,2,3,4)              0.0985         estimate D2E/DX2                !
 ! D16   D(7,2,3,4)           -179.9759         estimate D2E/DX2                !
 ! D17   D(2,3,4,5)              0.1004         estimate D2E/DX2                !
 ! D18   D(2,3,4,8)           -179.8996         estimate D2E/DX2                !
 ! D19   D(3,4,5,1)             -0.2532         estimate D2E/DX2                !
 ! D20   D(3,4,5,9)            179.9227         estimate D2E/DX2                !
 ! D21   D(8,4,5,1)            179.7468         estimate D2E/DX2                !
 ! D22   D(8,4,5,9)             -0.0773         estimate D2E/DX2                !
 --------------------------------------------------------------------------------
 Trust Radius=3.00D-01 FncErr=1.00D-07 GrdErr=1.00D-06
 Number of steps in this run=    100 maximum allowed number of steps=    100.
 GradGradGradGradGradGradGradGradGradGradGradGradGradGradGradGradGradGrad

                          Input orientation:                          
 ---------------------------------------------------------------------
 Center     Atomic      Atomic             Coordinates (Angstroms)
 Number     Number       Type             X           Y           Z
 ---------------------------------------------------------------------
      1          7           0        0.738180   -0.033740   -0.002870
      2          6           0       -0.094500    1.047510    0.007020
      3          7           0       -1.356100    0.678900    0.009010
      4          6           0       -1.331250   -0.692170    0.002320
      5          6           0       -0.036580   -1.157590   -0.001540
      6          6           0        2.176860    0.019710   -0.018440
      7          1           0        0.263150    2.068810    0.011250
      8          1           0       -2.245910   -1.270740    0.000640
      9          1           0        0.373330   -2.157500   -0.005820
     10          1           0        2.581170   -0.995540   -0.002190
     11          1           0        2.513810    0.568000    0.864950
     12          1           0        2.493660    0.531400   -0.930790
 ---------------------------------------------------------------------
                    Distance matrix (angstroms):
                    1          2          3          4          5
     1  N    0.000000
     2  C    1.364755   0.000000
     3  N    2.212240   1.314348   0.000000
     4  C    2.171658   2.134493   1.371311   0.000000
     5  C    1.365025   2.205877   2.261402   1.375791   0.000000
     6  C    1.439757   2.493210   3.594036   3.579670   2.507117
     7  H    2.155590   1.082121   2.133969   3.188291   3.240318
     8  H    3.230321   3.162734   2.143112   1.082289   2.212227
     9  H    2.154874   3.239000   3.322095   2.247855   1.080678
    10  H    2.078863   3.366504   4.278548   3.924167   2.622761
    11  H    2.065929   2.787338   3.964989   4.137227   3.198899
    12  H    2.064492   2.800791   3.965556   4.122833   3.180929
                    6          7          8          9         10
     6  C    0.000000
     7  H    2.803922   0.000000
     8  H    4.607225   4.177091   0.000000
     9  H    2.827211   4.227780   2.765285   0.000000
    10  H    1.092915   3.842348   4.834919   2.494939   0.000000
    11  H    1.092948   2.836671   5.175223   3.573268   1.789169
    12  H    1.092965   2.868143   5.155463   3.547048   1.789274
                   11         12
    11  H    0.000000
    12  H    1.796226   0.000000
 Stoichiometry    C4H6N2
 Framework group  C1[X(C4H6N2)]
 Deg. of freedom    30
 Full point group                 C1      NOp   1
 Largest Abelian subgroup         C1      NOp   1
 Largest concise Abelian subgroup C1      NOp   1
                         Standard orientation:                         
 ---------------------------------------------------------------------
 Center     Atomic      Atomic             Coordinates (Angstroms)
 Number     Number       Type             X           Y           Z
 ---------------------------------------------------------------------
      1          7           0        0.602663    0.024304   -0.002989
      2          6           0       -0.187888   -1.088164   -0.002910
      3          7           0       -1.462711   -0.768296    0.001879
      4          6           0       -1.490537    0.602733    0.002718
      5          6           0       -0.214715    1.117550   -0.003878
      6          6           0        2.042405    0.026221    0.003328
      7          1           0        0.208719   -2.094982   -0.005259
      8          1           0       -2.426730    1.145747    0.008022
      9          1           0        0.156478    2.132475   -0.006446
     10          1           0        2.407280    1.056170   -0.019796
     11          1           0        2.394501   -0.512602   -0.879980
     12          1           0        2.384490   -0.468906    0.915686
 ---------------------------------------------------------------------
 Rotational constants (GHZ):      9.1382561      3.6758584      2.6663969
 Standard basis: CC-pVDZ (5D, 7F)
 There are   120 symmetry adapted cartesian basis functions of A   symmetry.
 There are   114 symmetry adapted basis functions of A   symmetry.
   114 basis functions,   240 primitive gaussians,   120 cartesian basis functions
    22 alpha electrons       22 beta electrons
       nuclear repulsion energy       227.0238833733 Hartrees.
 NAtoms=   12 NActive=   12 NUniq=   12 SFac= 1.00D+00 NAtFMM=   60 NAOKFM=F Big=F
 Integral buffers will be    131072 words long.
 Raffenetti 2 integral format.
 Two-electron integral symmetry is turned on.
 One-electron integrals computed using PRISM.
 NBasis=   114 RedAO= T EigKep=  1.62D-03  NBF=   114
 NBsUse=   114 1.00D-06 EigRej= -1.00D+00 NBFU=   114
 ExpMin= 1.22D-01 ExpMax= 9.05D+03 ExpMxC= 3.09D+02 IAcc=1 IRadAn=         1 AccDes= 0.00D+00
 Harris functional with IExCor=  402 and IRadAn=       1 diagonalized for initial guess.
 HarFok:  IExCor=  402 AccDes= 0.00D+00 IRadAn=         1 IDoV= 1 UseB2=F ITyADJ=14
 ICtDFT=  3500011 ScaDFX=  1.000000  1.000000  1.000000  1.000000
 FoFCou: FMM=F IPFlag=           0 FMFlag=      100000 FMFlg1=           0
         NFxFlg=           0 DoJE=T BraDBF=F KetDBF=T FulRan=T
         wScrn=  0.000000 ICntrl=     500 IOpCl=  0 I1Cent=   200000004 NGrid=           0
         NMat0=    1 NMatS0=      1 NMatT0=    0 NMatD0=    1 NMtDS0=    0 NMtDT0=    0
 Petite list used in FoFCou.
 Keep R1 ints in memory in canonical form, NReq=22502821.
 Requested convergence on RMS density matrix=1.00D-08 within 128 cycles.
 Requested convergence on MAX density matrix=1.00D-06.
 Requested convergence on             energy=1.00D-06.
 No special actions if energy rises.
 Integral accuracy reduced to 1.0D-05 until final iterations.
 Initial convergence to 1.0D-05 achieved.  Increase integral accuracy.
 SCF Done:  E(RB3LYP) =  -265.539887088     A.U. after   14 cycles
            NFock= 14  Conv=0.55D-08     -V/T= 2.0065

 **********************************************************************

            Population analysis using the SCF density.

 **********************************************************************

 Orbital symmetries:
       Occupied  (A) (A) (A) (A) (A) (A) (A) (A) (A) (A) (A) (A)
                 (A) (A) (A) (A) (A) (A) (A) (A) (A) (A)
       Virtual   (A) (A) (A) (A) (A) (A) (A) (A) (A) (A) (A) (A)
                 (A) (A) (A) (A) (A) (A) (A) (A) (A) (A) (A) (A)
                 (A) (A) (A) (A) (A) (A) (A) (A) (A) (A) (A) (A)
                 (A) (A) (A) (A) (A) (A) (A) (A) (A) (A) (A) (A)
                 (A) (A) (A) (A) (A) (A) (A) (A) (A) (A) (A) (A)
                 (A) (A) (A) (A) (A) (A) (A) (A) (A) (A) (A) (A)
                 (A) (A) (A) (A) (A) (A) (A) (A) (A) (A) (A) (A)
                 (A) (A) (A) (A) (A) (A) (A) (A)
 The electronic state is 1-A.
 Alpha  occ. eigenvalues --  -14.38528 -14.29822 -10.24188 -10.22616 -10.20605
 Alpha  occ. eigenvalues --  -10.18720  -1.01860  -0.88396  -0.75138  -0.71472
 Alpha  occ. eigenvalues --   -0.59348  -0.57231  -0.53146  -0.48123  -0.45348
 Alpha  occ. eigenvalues --   -0.42533  -0.41496  -0.39574  -0.39486  -0.26673
 Alpha  occ. eigenvalues --   -0.25861  -0.22319
 Alpha virt. eigenvalues --    0.02505   0.05166   0.07019   0.08638   0.10154
 Alpha virt. eigenvalues --    0.12382   0.13177   0.13244   0.15008   0.22069
 Alpha virt. eigenvalues --    0.26031   0.29974   0.31113   0.38757   0.39045
 Alpha virt. eigenvalues --    0.40536   0.43631   0.48235   0.49786   0.51976
 Alpha virt. eigenvalues --    0.53747   0.54810   0.58088   0.58347   0.59934
 Alpha virt. eigenvalues --    0.61952   0.62778   0.65294   0.67168   0.71076
 Alpha virt. eigenvalues --    0.72192   0.78817   0.80591   0.85476   0.86406
 Alpha virt. eigenvalues --    0.87586   0.88966   0.94084   0.98990   1.02347
 Alpha virt. eigenvalues --    1.07644   1.08499   1.09357   1.12395   1.16606
 Alpha virt. eigenvalues --    1.19591   1.19889   1.32333   1.36867   1.40038
 Alpha virt. eigenvalues --    1.43011   1.47219   1.51107   1.52439   1.55676
 Alpha virt. eigenvalues --    1.58885   1.60939   1.62764   1.63192   1.64462
 Alpha virt. eigenvalues --    1.66753   1.70480   1.71432   1.77878   1.79563
 Alpha virt. eigenvalues --    1.81547   1.86255   1.90730   1.92722   1.92855
 Alpha virt. eigenvalues --    2.01500   2.01909   2.06965   2.15719   2.16450
 Alpha virt. eigenvalues --    2.23425   2.28426   2.34457   2.36844   2.38691
 Alpha virt. eigenvalues --    2.40739   2.43357   2.46744   2.50456   2.54997
 Alpha virt. eigenvalues --    2.60184   2.63820   2.71754   2.81386   2.88177
 Alpha virt. eigenvalues --    3.12378   3.25275
          Condensed to atoms (all electrons):
               1          2          3          4          5          6
     1  N    6.111817   0.468450  -0.072480  -0.066795   0.447589   0.375410
     2  C    0.468450   4.728327   0.595838  -0.152743  -0.113315  -0.049975
     3  N   -0.072480   0.595838   6.241268   0.550817  -0.077546   0.004429
     4  C   -0.066795  -0.152743   0.550817   4.716331   0.545069   0.010103
     5  C    0.447589  -0.113315  -0.077546   0.545069   4.891793  -0.052060
     6  C    0.375410  -0.049975   0.004429   0.010103  -0.052060   4.461529
     7  H   -0.033950   0.387370  -0.019222   0.004463   0.005981  -0.000798
     8  H    0.003774   0.005642  -0.023917   0.400654  -0.053048  -0.000168
     9  H   -0.028786   0.005622   0.005418  -0.032416   0.384636  -0.004836
    10  H   -0.012364   0.005292  -0.000553   0.000317  -0.007510   0.389071
    11  H   -0.024763  -0.002630   0.000356  -0.000372   0.002935   0.391669
    12  H   -0.025533  -0.002633   0.000350  -0.000330   0.002650   0.392074
               7          8          9         10         11         12
     1  N   -0.033950   0.003774  -0.028786  -0.012364  -0.024763  -0.025533
     2  C    0.387370   0.005642   0.005622   0.005292  -0.002630  -0.002633
     3  N   -0.019222  -0.023917   0.005418  -0.000553   0.000356   0.000350
     4  C    0.004463   0.400654  -0.032416   0.000317  -0.000372  -0.000330
     5  C    0.005981  -0.053048   0.384636  -0.007510   0.002935   0.002650
     6  C   -0.000798  -0.000168  -0.004836   0.389071   0.391669   0.392074
     7  H    0.657203  -0.000537  -0.000356  -0.000065   0.001196   0.001034
     8  H   -0.000537   0.696492  -0.002094  -0.000037   0.000019   0.000019
     9  H   -0.000356  -0.002094   0.677493   0.002925   0.000155   0.000147
    10  H   -0.000065  -0.000037   0.002925   0.633366  -0.024234  -0.024700
    11  H    0.001196   0.000019   0.000155  -0.024234   0.643010  -0.031923
    12  H    0.001034   0.000019   0.000147  -0.024700  -0.031923   0.643808
 Mulliken charges:
               1
     1  N   -0.142369
     2  C    0.124755
     3  N   -0.204756
     4  C    0.024902
     5  C    0.022827
     6  C    0.083553
     7  H   -0.002319
     8  H   -0.026798
     9  H   -0.007908
    10  H    0.038493
    11  H    0.044583
    12  H    0.045037
 Sum of Mulliken charges =   0.00000
 Mulliken charges with hydrogens summed into heavy atoms:
               1
     1  N   -0.142369
     2  C    0.122436
     3  N   -0.204756
     4  C   -0.001896
     5  C    0.014919
     6  C    0.211666
 Electronic spatial extent (au):  <R**2>=            485.0590
 Charge=              0.0000 electrons
 Dipole moment (field-independent basis, Debye):
    X=              3.8185    Y=              1.1221    Z=             -0.0008  Tot=              3.9800
 Quadrupole moment (field-independent basis, Debye-Ang):
   XX=            -34.9513   YY=            -33.1132   ZZ=            -37.1913
   XY=             -3.2901   XZ=             -0.0099   YZ=              0.0086
 Traceless Quadrupole moment (field-independent basis, Debye-Ang):
   XX=              0.1340   YY=              1.9721   ZZ=             -2.1060
   XY=             -3.2901   XZ=             -0.0099   YZ=              0.0086
 Octapole moment (field-independent basis, Debye-Ang**2):
  XXX=             13.2279  YYY=              0.6991  ZZZ=              0.0564  XYY=              5.7802
  XXY=              8.1105  XXZ=              0.0023  XZZ=              3.2496  YZZ=             -1.6239
  YYZ=             -0.0745  XYZ=             -0.0207
 Hexadecapole moment (field-independent basis, Debye-Ang**3):
 XXXX=           -407.0616 YYYY=           -173.1765 ZZZZ=            -43.8966 XXXY=            -15.9847
 XXXZ=             -0.1923 YYYX=             -1.9511 YYYZ=              0.0043 ZZZX=              0.1064
 ZZZY=             -0.0047 XXYY=           -103.3069 XXZZ=            -76.7754 YYZZ=            -42.4850
 XXYZ=              0.0759 YYXZ=             -0.1166 ZZXY=             -0.3663
 N-N= 2.270238833733D+02 E-N=-1.071115834063D+03  KE= 2.638303238252D+02
 Calling FoFJK, ICntrl=      2127 FMM=F ISym2X=0 I1Cent= 0 IOpClX= 0 NMat=1 NMatS=1 NMatT=0.
 ***** Axes restored to original set *****
 -------------------------------------------------------------------
 Center     Atomic                   Forces (Hartrees/Bohr)
 Number     Number              X              Y              Z
 -------------------------------------------------------------------
      1        7           0.008423926    0.003892774    0.000970033
      2        6          -0.002888778   -0.006310629   -0.000394012
      3        7          -0.008827035    0.002530932    0.000089536
      4        6          -0.003870063   -0.001174871    0.000268693
      5        6          -0.010526518   -0.001148023   -0.000605591
      6        6          -0.002014970    0.001698877   -0.000098905
      7        1           0.003214998    0.003766397   -0.000049178
      8        1          -0.003599781   -0.002485029    0.000151672
      9        1           0.003005617   -0.002866822   -0.000116282
     10        1           0.002364684   -0.001901324    0.000060876
     11        1           0.007225363    0.002051905    0.002529845
     12        1           0.007492556    0.001945815   -0.002806687
 -------------------------------------------------------------------
 Cartesian Forces:  Max     0.010526518 RMS     0.003931235

 GradGradGradGradGradGradGradGradGradGradGradGradGradGradGradGradGradGrad
 Berny optimization.
 FormGI is forming the generalized inverse of G from B-inverse, IUseBI=4.
 Internal  Forces:  Max     0.015200354 RMS     0.004436601
 Search for a local minimum.
 Step number   1 out of a maximum of  100
 All quantities printed in internal units (Hartrees-Bohrs-Radians)
 Mixed Optimization -- RFO/linear search
 Second derivative matrix not updated -- first step.
 ITU=  0
     Eigenvalues ---    0.01166   0.01710   0.02204   0.02243   0.02328
     Eigenvalues ---    0.02356   0.02447   0.07830   0.07924   0.16000
     Eigenvalues ---    0.16000   0.16000   0.16000   0.16000   0.16000
     Eigenvalues ---    0.22685   0.23421   0.25000   0.34472   0.34474
     Eigenvalues ---    0.34478   0.35719   0.35739   0.35913   0.39619
     Eigenvalues ---    0.44051   0.46880   0.51154   0.51366   0.60801
 RFO step:  Lambda=-3.54581835D-03 EMin= 1.16587485D-02
 Linear search not attempted -- first point.
 Iteration  1 RMS(Cart)=  0.03311003 RMS(Int)=  0.00056233
 Iteration  2 RMS(Cart)=  0.00041053 RMS(Int)=  0.00029830
 Iteration  3 RMS(Cart)=  0.00000023 RMS(Int)=  0.00029830
 Variable       Old X    -DE/DX   Delta X   Delta X   Delta X     New X
                                 (Linear)    (Quad)   (Total)
    R1        2.57901   0.00385   0.00000   0.00759   0.00765   2.58666
    R2        2.57952   0.01241   0.00000   0.02396   0.02398   2.60351
    R3        2.72075   0.01520   0.00000   0.03803   0.03803   2.75877
    R4        2.48376   0.00925   0.00000   0.01447   0.01448   2.49824
    R5        2.04491   0.00462   0.00000   0.01279   0.01279   2.05770
    R6        2.59140   0.00232   0.00000   0.00425   0.00420   2.59561
    R7        2.59987   0.00577   0.00000   0.01136   0.01132   2.61119
    R8        2.04523   0.00437   0.00000   0.01212   0.01212   2.05735
    R9        2.04219   0.00379   0.00000   0.01046   0.01046   2.05265
   R10        2.06531   0.00264   0.00000   0.00758   0.00758   2.07289
   R11        2.06537   0.00530   0.00000   0.01523   0.01523   2.08060
   R12        2.06540   0.00543   0.00000   0.01558   0.01558   2.08098
    A1        1.88177  -0.00834   0.00000  -0.03279  -0.03272   1.84904
    A2        2.18994   0.00435   0.00000   0.01708   0.01704   2.20698
    A3        2.21146   0.00400   0.00000   0.01569   0.01565   2.22712
    A4        1.94278   0.00555   0.00000   0.02435   0.02439   1.96717
    A5        2.14851  -0.00460   0.00000  -0.02335  -0.02338   2.12513
    A6        2.19189  -0.00095   0.00000  -0.00099  -0.00102   2.19087
    A7        1.83693  -0.00070   0.00000  -0.00486  -0.00494   1.83199
    A8        1.93403  -0.00191   0.00000  -0.01019  -0.01029   1.92374
    A9        2.11669   0.00114   0.00000   0.00621   0.00626   2.12294
   A10        2.23247   0.00077   0.00000   0.00398   0.00403   2.23650
   A11        1.82926   0.00540   0.00000   0.02357   0.02354   1.85279
   A12        2.14897  -0.00443   0.00000  -0.02236  -0.02236   2.12661
   A13        2.30496  -0.00097   0.00000  -0.00119  -0.00119   2.30377
   A14        1.91242  -0.00078   0.00000  -0.00760  -0.00758   1.90484
   A15        1.89436   0.00728   0.00000   0.04571   0.04495   1.93931
   A16        1.89235   0.00785   0.00000   0.04963   0.04885   1.94121
   A17        1.91765  -0.00392   0.00000  -0.02730  -0.02726   1.89039
   A18        1.91780  -0.00403   0.00000  -0.02714  -0.02713   1.89067
   A19        1.92887  -0.00608   0.00000  -0.03131  -0.03276   1.89611
    D1       -0.00455   0.00028   0.00000   0.01117   0.01108   0.00652
    D2        3.13830   0.00013   0.00000   0.00536   0.00531  -3.13958
    D3        3.13228   0.00020   0.00000   0.00671   0.00669   3.13897
    D4       -0.00806   0.00004   0.00000   0.00091   0.00092  -0.00713
    D5        0.00528  -0.00032   0.00000  -0.01293  -0.01288  -0.00760
    D6       -3.13903  -0.00012   0.00000  -0.00485  -0.00482   3.13934
    D7       -3.13147  -0.00024   0.00000  -0.00841  -0.00842  -3.13990
    D8        0.00740  -0.00003   0.00000  -0.00032  -0.00037   0.00703
    D9        3.12077  -0.00003   0.00000   0.00018   0.00018   3.12096
   D10        1.02663   0.00080   0.00000   0.01025   0.01084   1.03748
   D11       -1.06931  -0.00065   0.00000  -0.00737  -0.00793  -1.07724
   D12       -0.02648  -0.00016   0.00000  -0.00524  -0.00527  -0.03174
   D13       -2.12061   0.00067   0.00000   0.00483   0.00540  -2.11522
   D14        2.06663  -0.00079   0.00000  -0.01279  -0.01338   2.05325
   D15        0.00172  -0.00009   0.00000  -0.00416  -0.00425  -0.00253
   D16       -3.14117   0.00007   0.00000   0.00180   0.00176  -3.13941
   D17        0.00175  -0.00011   0.00000  -0.00430  -0.00428  -0.00253
   D18       -3.13984  -0.00007   0.00000  -0.00207  -0.00202   3.14132
   D19       -0.00442   0.00026   0.00000   0.01077   0.01087   0.00645
   D20        3.14024   0.00003   0.00000   0.00169   0.00170  -3.14125
   D21        3.13717   0.00021   0.00000   0.00835   0.00842  -3.13759
   D22       -0.00135  -0.00002   0.00000  -0.00073  -0.00075  -0.00210
         Item               Value     Threshold  Converged?
 Maximum Force            0.015200     0.000015     NO 
 RMS     Force            0.004437     0.000010     NO 
 Maximum Displacement     0.139404     0.000060     NO 
 RMS     Displacement     0.033114     0.000040     NO 
 Predicted change in Energy=-1.803191D-03
 GradGradGradGradGradGradGradGradGradGradGradGradGradGradGradGradGradGrad

                          Input orientation:                          
 ---------------------------------------------------------------------
 Center     Atomic      Atomic             Coordinates (Angstroms)
 Number     Number       Type             X           Y           Z
 ---------------------------------------------------------------------
      1          7           0        0.737836   -0.027565   -0.003917
      2          6           0       -0.118533    1.040236    0.003104
      3          7           0       -1.389181    0.675409    0.011391
      4          6           0       -1.363947   -0.697885    0.006363
      5          6           0       -0.058851   -1.151564   -0.008344
      6          6           0        2.196502    0.030501   -0.016906
      7          1           0        0.245119    2.066602    0.005916
      8          1           0       -2.280192   -1.285881    0.011443
      9          1           0        0.362517   -2.152686   -0.016344
     10          1           0        2.597251   -0.990434    0.001479
     11          1           0        2.579871    0.568513    0.863879
     12          1           0        2.567429    0.531804   -0.924524
 ---------------------------------------------------------------------
                    Distance matrix (angstroms):
                    1          2          3          4          5
     1  N    0.000000
     2  C    1.368801   0.000000
     3  N    2.240224   1.322011   0.000000
     4  C    2.206111   2.138255   1.373535   0.000000
     5  C    1.377717   2.192643   2.260088   1.381780   0.000000
     6  C    1.459879   2.525738   3.643326   3.634266   2.546364
     7  H    2.151373   1.088888   2.146249   3.198669   3.232522
     8  H    3.269875   3.175478   2.154196   1.088701   2.225486
     9  H    2.158045   3.229015   3.326760   2.257795   1.086214
    10  H    2.093937   3.391034   4.320505   3.971989   2.661003
    11  H    2.121668   2.871383   4.060977   4.229988   3.268378
    12  H    2.123164   2.886762   4.068331   4.223080   3.251225
                    6          7          8          9         10
     6  C    0.000000
     7  H    2.820306   0.000000
     8  H    4.666310   4.197186   0.000000
     9  H    2.851282   4.220980   2.781372   0.000000
    10  H    1.096926   3.857203   4.886393   2.518965   0.000000
    11  H    1.101005   2.903694   5.271208   3.618892   1.781671
    12  H    1.101209   2.935038   5.261126   3.590671   1.782016
                   11         12
    11  H    0.000000
    12  H    1.788823   0.000000
 Stoichiometry    C4H6N2
 Framework group  C1[X(C4H6N2)]
 Deg. of freedom    30
 Full point group                 C1      NOp   1
 Largest Abelian subgroup         C1      NOp   1
 Largest concise Abelian subgroup C1      NOp   1
                         Standard orientation:                         
 ---------------------------------------------------------------------
 Center     Atomic      Atomic             Coordinates (Angstroms)
 Number     Number       Type             X           Y           Z
 ---------------------------------------------------------------------
      1          7           0        0.613718    0.022433   -0.002723
      2          6           0       -0.195477   -1.081562    0.001331
      3          7           0       -1.480802   -0.772287    0.000396
      4          6           0       -1.515224    0.600816   -0.001154
      5          6           0       -0.231001    1.110793    0.002143
      6          6           0        2.073585    0.027812    0.000147
      7          1           0        0.212396   -2.091174    0.000711
      8          1           0       -2.456164    1.148447   -0.002447
      9          1           0        0.146518    2.129292    0.002477
     10          1           0        2.429462    1.065079   -0.025848
     11          1           0        2.473868   -0.497415   -0.880831
     12          1           0        2.472208   -0.452403    0.907425
 ---------------------------------------------------------------------
 Rotational constants (GHZ):      9.1950654      3.5588475      2.6085022
 Standard basis: CC-pVDZ (5D, 7F)
 There are   120 symmetry adapted cartesian basis functions of A   symmetry.
 There are   114 symmetry adapted basis functions of A   symmetry.
   114 basis functions,   240 primitive gaussians,   120 cartesian basis functions
    22 alpha electrons       22 beta electrons
       nuclear repulsion energy       225.2464005259 Hartrees.
 NAtoms=   12 NActive=   12 NUniq=   12 SFac= 1.00D+00 NAtFMM=   60 NAOKFM=F Big=F
 Integral buffers will be    131072 words long.
 Raffenetti 2 integral format.
 Two-electron integral symmetry is turned on.
 One-electron integrals computed using PRISM.
 NBasis=   114 RedAO= T EigKep=  1.66D-03  NBF=   114
 NBsUse=   114 1.00D-06 EigRej= -1.00D+00 NBFU=   114
 Initial guess from the checkpoint file:  "im1.chk"
 B after Tr=     0.000000    0.000000    0.000000
         Rot=    0.999999    0.000043   -0.000115   -0.001442 Ang=   0.17 deg.
 ExpMin= 1.22D-01 ExpMax= 9.05D+03 ExpMxC= 3.09D+02 IAcc=1 IRadAn=         1 AccDes= 0.00D+00
 Harris functional with IExCor=  402 and IRadAn=       1 diagonalized for initial guess.
 HarFok:  IExCor=  402 AccDes= 0.00D+00 IRadAn=         1 IDoV= 1 UseB2=F ITyADJ=14
 ICtDFT=  3500011 ScaDFX=  1.000000  1.000000  1.000000  1.000000
 FoFCou: FMM=F IPFlag=           0 FMFlag=      100000 FMFlg1=           0
         NFxFlg=           0 DoJE=T BraDBF=F KetDBF=T FulRan=T
         wScrn=  0.000000 ICntrl=     500 IOpCl=  0 I1Cent=   200000004 NGrid=           0
         NMat0=    1 NMatS0=      1 NMatT0=    0 NMatD0=    1 NMtDS0=    0 NMtDT0=    0
 Petite list used in FoFCou.
 Keep R1 ints in memory in canonical form, NReq=22502362.
 Requested convergence on RMS density matrix=1.00D-08 within 128 cycles.
 Requested convergence on MAX density matrix=1.00D-06.
 Requested convergence on             energy=1.00D-06.
 No special actions if energy rises.
 Integral accuracy reduced to 1.0D-05 until final iterations.
 Initial convergence to 1.0D-05 achieved.  Increase integral accuracy.
 SCF Done:  E(RB3LYP) =  -265.541234605     A.U. after   11 cycles
            NFock= 11  Conv=0.70D-08     -V/T= 2.0072
 Calling FoFJK, ICntrl=      2127 FMM=F ISym2X=0 I1Cent= 0 IOpClX= 0 NMat=1 NMatS=1 NMatT=0.
 ***** Axes restored to original set *****
 -------------------------------------------------------------------
 Center     Atomic                   Forces (Hartrees/Bohr)
 Number     Number              X              Y              Z
 -------------------------------------------------------------------
      1        7           0.001885860    0.003059480   -0.000756716
      2        6          -0.002443628    0.002425206    0.000631168
      3        7           0.002905119    0.003091012    0.000027048
      4        6           0.005497986   -0.001458028   -0.000606410
      5        6          -0.003811146   -0.005597758    0.000794353
      6        6          -0.003362495   -0.000884666   -0.000126459
      7        1           0.000062988    0.000138645   -0.000008731
      8        1           0.000638792   -0.000110792   -0.000060105
      9        1           0.000567387   -0.000173677    0.000052408
     10        1          -0.000158832   -0.000697464    0.000054275
     11        1          -0.000926972    0.000118618    0.000300653
     12        1          -0.000855060    0.000089424   -0.000301485
 -------------------------------------------------------------------
 Cartesian Forces:  Max     0.005597758 RMS     0.001959047

 GradGradGradGradGradGradGradGradGradGradGradGradGradGradGradGradGradGrad
 Berny optimization.
 Using GEDIIS/GDIIS optimizer.
 FormGI is forming the generalized inverse of G from B-inverse, IUseBI=4.
 Internal  Forces:  Max     0.005353462 RMS     0.001558285
 Search for a local minimum.
 Step number   2 out of a maximum of  100
 All quantities printed in internal units (Hartrees-Bohrs-Radians)
 Mixed Optimization -- RFO/linear search
 Update second derivatives using D2CorX and points    1    2
 DE= -1.35D-03 DEPred=-1.80D-03 R= 7.47D-01
 TightC=F SS=  1.41D+00  RLast= 1.25D-01 DXNew= 5.0454D-01 3.7353D-01
 Trust test= 7.47D-01 RLast= 1.25D-01 DXMaxT set to 3.74D-01
 ITU=  1  0
 Use linear search instead of GDIIS.
     Eigenvalues ---    0.01166   0.01702   0.02218   0.02249   0.02329
     Eigenvalues ---    0.02361   0.02452   0.07453   0.07689   0.15571
     Eigenvalues ---    0.16000   0.16000   0.16000   0.16000   0.16305
     Eigenvalues ---    0.22866   0.24825   0.26598   0.33863   0.34473
     Eigenvalues ---    0.34499   0.35523   0.35741   0.35868   0.42306
     Eigenvalues ---    0.44329   0.46915   0.50189   0.51922   0.63853
 RFO step:  Lambda=-1.60873670D-04 EMin= 1.16578156D-02
 Quartic linear search produced a step of -0.18812.
 Iteration  1 RMS(Cart)=  0.00832732 RMS(Int)=  0.00005960
 Iteration  2 RMS(Cart)=  0.00003053 RMS(Int)=  0.00005446
 Iteration  3 RMS(Cart)=  0.00000000 RMS(Int)=  0.00005446
 Variable       Old X    -DE/DX   Delta X   Delta X   Delta X     New X
                                 (Linear)    (Quad)   (Total)
    R1        2.58666   0.00078  -0.00144   0.00316   0.00170   2.58836
    R2        2.60351   0.00209  -0.00451   0.00907   0.00455   2.60805
    R3        2.75877  -0.00535  -0.00715  -0.00219  -0.00934   2.74943
    R4        2.49824  -0.00365  -0.00272  -0.00143  -0.00416   2.49408
    R5        2.05770   0.00015  -0.00241   0.00329   0.00088   2.05858
    R6        2.59561   0.00346  -0.00079   0.00623   0.00546   2.60106
    R7        2.61119  -0.00425  -0.00213  -0.00433  -0.00645   2.60474
    R8        2.05735  -0.00048  -0.00228   0.00171  -0.00057   2.05677
    R9        2.05265   0.00038  -0.00197   0.00327   0.00130   2.05395
   R10        2.07289   0.00059  -0.00143   0.00313   0.00171   2.07460
   R11        2.08060  -0.00002  -0.00286   0.00345   0.00059   2.08119
   R12        2.08098   0.00000  -0.00293   0.00359   0.00066   2.08165
    A1        1.84904   0.00298   0.00616   0.00337   0.00948   1.85852
    A2        2.20698  -0.00044  -0.00321   0.00189  -0.00130   2.20568
    A3        2.22712  -0.00253  -0.00294  -0.00521  -0.00814   2.21897
    A4        1.96717  -0.00215  -0.00459  -0.00190  -0.00652   1.96065
    A5        2.12513   0.00106   0.00440  -0.00162   0.00279   2.12792
    A6        2.19087   0.00108   0.00019   0.00354   0.00374   2.19461
    A7        1.83199   0.00030   0.00093  -0.00085   0.00009   1.83208
    A8        1.92374   0.00212   0.00194   0.00522   0.00716   1.93090
    A9        2.12294  -0.00061  -0.00118  -0.00004  -0.00123   2.12172
   A10        2.23650  -0.00152  -0.00076  -0.00517  -0.00594   2.23056
   A11        1.85279  -0.00325  -0.00443  -0.00574  -0.01020   1.84260
   A12        2.12661   0.00116   0.00421  -0.00189   0.00231   2.12892
   A13        2.30377   0.00210   0.00022   0.00767   0.00789   2.31166
   A14        1.90484  -0.00012   0.00143  -0.00214  -0.00073   1.90412
   A15        1.93931  -0.00115  -0.00846   0.00401  -0.00431   1.93500
   A16        1.94121  -0.00101  -0.00919   0.00573  -0.00333   1.93788
   A17        1.89039   0.00069   0.00513  -0.00256   0.00255   1.89295
   A18        1.89067   0.00068   0.00510  -0.00236   0.00274   1.89341
   A19        1.89611   0.00101   0.00616  -0.00303   0.00339   1.89950
    D1        0.00652  -0.00028  -0.00208  -0.00901  -0.01110  -0.00458
    D2       -3.13958  -0.00010  -0.00100  -0.00380  -0.00482   3.13879
    D3        3.13897  -0.00018  -0.00126  -0.00415  -0.00538   3.13358
    D4       -0.00713   0.00000  -0.00017   0.00106   0.00090  -0.00623
    D5       -0.00760   0.00036   0.00242   0.01136   0.01377   0.00618
    D6        3.13934   0.00012   0.00091   0.00442   0.00536  -3.13849
    D7       -3.13990   0.00024   0.00158   0.00637   0.00794  -3.13196
    D8        0.00703   0.00000   0.00007  -0.00057  -0.00047   0.00657
    D9        3.12096  -0.00012  -0.00003  -0.00499  -0.00502   3.11593
   D10        1.03748  -0.00019  -0.00204  -0.00293  -0.00507   1.03241
   D11       -1.07724   0.00001   0.00149  -0.00575  -0.00416  -1.08140
   D12       -0.03174   0.00003   0.00099   0.00097   0.00196  -0.02978
   D13       -2.11522  -0.00003  -0.00101   0.00303   0.00191  -2.11331
   D14        2.05325   0.00017   0.00252   0.00021   0.00282   2.05607
   D15       -0.00253   0.00008   0.00080   0.00263   0.00344   0.00091
   D16       -3.13941  -0.00011  -0.00033  -0.00279  -0.00313   3.14065
   D17       -0.00253   0.00015   0.00081   0.00489   0.00572   0.00319
   D18        3.14132   0.00000   0.00038  -0.00034   0.00007   3.14139
   D19        0.00645  -0.00034  -0.00204  -0.01035  -0.01237  -0.00592
   D20       -3.14125  -0.00007  -0.00032  -0.00246  -0.00274   3.13920
   D21       -3.13759  -0.00017  -0.00158  -0.00468  -0.00627   3.13933
   D22       -0.00210   0.00009   0.00014   0.00320   0.00337   0.00127
         Item               Value     Threshold  Converged?
 Maximum Force            0.005353     0.000015     NO 
 RMS     Force            0.001558     0.000010     NO 
 Maximum Displacement     0.019661     0.000060     NO 
 RMS     Displacement     0.008341     0.000040     NO 
 Predicted change in Energy=-1.519462D-04
 GradGradGradGradGradGradGradGradGradGradGradGradGradGradGradGradGradGrad

                          Input orientation:                          
 ---------------------------------------------------------------------
 Center     Atomic      Atomic             Coordinates (Angstroms)
 Number     Number       Type             X           Y           Z
 ---------------------------------------------------------------------
      1          7           0        0.735941   -0.025533   -0.003871
      2          6           0       -0.116839    1.046247    0.007859
      3          7           0       -1.384428    0.678669    0.010931
      4          6           0       -1.355611   -0.697423    0.001933
      5          6           0       -0.055767   -1.155991   -0.002489
      6          6           0        2.189782    0.028651   -0.019467
      7          1           0        0.248075    2.072655    0.012076
      8          1           0       -2.270831   -1.286475    0.002252
      9          1           0        0.369193   -2.156362   -0.007559
     10          1           0        2.587583   -0.994377    0.000459
     11          1           0        2.571697    0.568489    0.861222
     12          1           0        2.557025    0.528500   -0.929806
 ---------------------------------------------------------------------
                    Distance matrix (angstroms):
                    1          2          3          4          5
     1  N    0.000000
     2  C    1.369703   0.000000
     3  N    2.234297   1.319812   0.000000
     4  C    2.196829   2.138919   1.376422   0.000000
     5  C    1.380122   2.203109   2.265280   1.378368   0.000000
     6  C    1.454934   2.521260   3.632964   3.619040   2.538928
     7  H    2.154220   1.089355   2.146687   3.200819   3.242944
     8  H    3.260474   3.175107   2.155823   1.088398   2.218909
     9  H    2.162163   3.239317   3.333606   2.259102   1.086904
    10  H    2.089798   3.387935   4.309995   3.954360   2.648288
    11  H    2.114532   2.860893   4.047969   4.214814   3.259355
    12  H    2.116756   2.880421   4.054946   4.204728   3.244088
                    6          7          8          9         10
     6  C    0.000000
     7  H    2.819428   0.000000
     8  H    4.650495   4.198659   0.000000
     9  H    2.844111   4.230797   2.779663   0.000000
    10  H    1.097829   3.857476   4.867187   2.504302   0.000000
    11  H    1.101316   2.895303   5.256310   3.609795   1.784298
    12  H    1.101560   2.933054   5.241284   3.584080   1.784792
                   11         12
    11  H    0.000000
    12  H    1.791534   0.000000
 Stoichiometry    C4H6N2
 Framework group  C1[X(C4H6N2)]
 Deg. of freedom    30
 Full point group                 C1      NOp   1
 Largest Abelian subgroup         C1      NOp   1
 Largest concise Abelian subgroup C1      NOp   1
                         Standard orientation:                         
 ---------------------------------------------------------------------
 Center     Atomic      Atomic             Coordinates (Angstroms)
 Number     Number       Type             X           Y           Z
 ---------------------------------------------------------------------
      1          7           0        0.610802    0.020017   -0.002370
      2          6           0       -0.196480   -1.086501   -0.002706
      3          7           0       -1.478320   -0.772220    0.001389
      4          6           0       -1.507004    0.603902    0.003328
      5          6           0       -0.227472    1.116389   -0.003762
      6          6           0        2.065710    0.026699    0.003174
      7          1           0        0.210994   -2.096776   -0.004401
      8          1           0       -2.446034    1.154195    0.006572
      9          1           0        0.155314    2.133654   -0.006693
     10          1           0        2.420241    1.065333   -0.024671
     11          1           0        2.463790   -0.501350   -0.877504
     12          1           0        2.459790   -0.452564    0.913362
 ---------------------------------------------------------------------
 Rotational constants (GHZ):      9.1312403      3.5854531      2.6176963
 Standard basis: CC-pVDZ (5D, 7F)
 There are   120 symmetry adapted cartesian basis functions of A   symmetry.
 There are   114 symmetry adapted basis functions of A   symmetry.
   114 basis functions,   240 primitive gaussians,   120 cartesian basis functions
    22 alpha electrons       22 beta electrons
       nuclear repulsion energy       225.4105974997 Hartrees.
 NAtoms=   12 NActive=   12 NUniq=   12 SFac= 1.00D+00 NAtFMM=   60 NAOKFM=F Big=F
 Integral buffers will be    131072 words long.
 Raffenetti 2 integral format.
 Two-electron integral symmetry is turned on.
 One-electron integrals computed using PRISM.
 NBasis=   114 RedAO= T EigKep=  1.65D-03  NBF=   114
 NBsUse=   114 1.00D-06 EigRej= -1.00D+00 NBFU=   114
 Initial guess from the checkpoint file:  "im1.chk"
 B after Tr=     0.000000    0.000000    0.000000
         Rot=    1.000000    0.000098    0.000026    0.000687 Ang=   0.08 deg.
 Keep R1 ints in memory in canonical form, NReq=22502404.
 Requested convergence on RMS density matrix=1.00D-08 within 128 cycles.
 Requested convergence on MAX density matrix=1.00D-06.
 Requested convergence on             energy=1.00D-06.
 No special actions if energy rises.
 SCF Done:  E(RB3LYP) =  -265.541384368     A.U. after   10 cycles
            NFock= 10  Conv=0.32D-08     -V/T= 2.0072
 Calling FoFJK, ICntrl=      2127 FMM=F ISym2X=0 I1Cent= 0 IOpClX= 0 NMat=1 NMatS=1 NMatT=0.
 ***** Axes restored to original set *****
 -------------------------------------------------------------------
 Center     Atomic                   Forces (Hartrees/Bohr)
 Number     Number              X              Y              Z
 -------------------------------------------------------------------
      1        7           0.002483970    0.001734861    0.000624339
      2        6          -0.000950766   -0.001039132   -0.000419337
      3        7           0.000461276    0.000603901   -0.000107631
      4        6           0.000707168   -0.000551612    0.000557196
      5        6          -0.001795434   -0.000604527   -0.000796185
      6        6          -0.001120540   -0.000463654    0.000196332
      7        1           0.000065261   -0.000287059   -0.000025283
      8        1           0.000099470    0.000127518    0.000085097
      9        1           0.000208915    0.000508421   -0.000110834
     10        1           0.000069977    0.000074153    0.000020177
     11        1          -0.000055425   -0.000024561   -0.000086125
     12        1          -0.000173871   -0.000078308    0.000062254
 -------------------------------------------------------------------
 Cartesian Forces:  Max     0.002483970 RMS     0.000739039

 GradGradGradGradGradGradGradGradGradGradGradGradGradGradGradGradGradGrad
 Berny optimization.
 Using GEDIIS/GDIIS optimizer.
 FormGI is forming the generalized inverse of G from B-inverse, IUseBI=4.
 Internal  Forces:  Max     0.001299851 RMS     0.000342049
 Search for a local minimum.
 Step number   3 out of a maximum of  100
 All quantities printed in internal units (Hartrees-Bohrs-Radians)
 Mixed Optimization -- En-DIIS/RFO-DIIS
 Update second derivatives using D2CorX and points    1    2    3
 DE= -1.50D-04 DEPred=-1.52D-04 R= 9.86D-01
 TightC=F SS=  1.41D+00  RLast= 3.94D-02 DXNew= 6.2819D-01 1.1814D-01
 Trust test= 9.86D-01 RLast= 3.94D-02 DXMaxT set to 3.74D-01
 ITU=  1  1  0
 Use linear search instead of GDIIS.
     Eigenvalues ---    0.01164   0.01722   0.02238   0.02328   0.02344
     Eigenvalues ---    0.02415   0.02595   0.07500   0.07714   0.15134
     Eigenvalues ---    0.15999   0.16000   0.16000   0.16051   0.16223
     Eigenvalues ---    0.22455   0.24447   0.29674   0.34111   0.34473
     Eigenvalues ---    0.34509   0.35677   0.35755   0.36181   0.39353
     Eigenvalues ---    0.43707   0.46316   0.48187   0.51720   0.61716
 RFO step:  Lambda=-4.08910283D-05 EMin= 1.16379365D-02
 Quartic linear search produced a step of -0.02892.
 Iteration  1 RMS(Cart)=  0.00531440 RMS(Int)=  0.00002017
 Iteration  2 RMS(Cart)=  0.00002371 RMS(Int)=  0.00001007
 Iteration  3 RMS(Cart)=  0.00000000 RMS(Int)=  0.00001007
 Variable       Old X    -DE/DX   Delta X   Delta X   Delta X     New X
                                 (Linear)    (Quad)   (Total)
    R1        2.58836  -0.00045  -0.00005  -0.00044  -0.00049   2.58787
    R2        2.60805   0.00077  -0.00013   0.00264   0.00250   2.61056
    R3        2.74943  -0.00130   0.00027  -0.00455  -0.00428   2.74514
    R4        2.49408  -0.00060   0.00012  -0.00163  -0.00150   2.49258
    R5        2.05858  -0.00025  -0.00003  -0.00037  -0.00039   2.05819
    R6        2.60106   0.00015  -0.00016   0.00136   0.00120   2.60226
    R7        2.60474  -0.00082   0.00019  -0.00264  -0.00246   2.60228
    R8        2.05677  -0.00015   0.00002  -0.00039  -0.00037   2.05640
    R9        2.05395  -0.00038  -0.00004  -0.00067  -0.00071   2.05325
   R10        2.07460  -0.00005  -0.00005   0.00028   0.00023   2.07483
   R11        2.08119  -0.00010  -0.00002   0.00000  -0.00001   2.08117
   R12        2.08165  -0.00014  -0.00002  -0.00011  -0.00012   2.08152
    A1        1.85852  -0.00058  -0.00027  -0.00069  -0.00100   1.85753
    A2        2.20568   0.00070   0.00004   0.00261   0.00265   2.20833
    A3        2.21897  -0.00013   0.00024  -0.00193  -0.00169   2.21729
    A4        1.96065   0.00052   0.00019   0.00106   0.00123   1.96188
    A5        2.12792  -0.00042  -0.00008  -0.00170  -0.00178   2.12614
    A6        2.19461  -0.00010  -0.00011   0.00065   0.00054   2.19515
    A7        1.83208  -0.00010   0.00000  -0.00082  -0.00083   1.83125
    A8        1.93090  -0.00004  -0.00021   0.00111   0.00088   1.93178
    A9        2.12172  -0.00003   0.00004  -0.00038  -0.00034   2.12138
   A10        2.23056   0.00007   0.00017  -0.00071  -0.00054   2.23002
   A11        1.84260   0.00020   0.00029  -0.00055  -0.00030   1.84230
   A12        2.12892  -0.00051  -0.00007  -0.00281  -0.00288   2.12604
   A13        2.31166   0.00030  -0.00023   0.00339   0.00316   2.31482
   A14        1.90412   0.00019   0.00002   0.00106   0.00108   1.90520
   A15        1.93500  -0.00002   0.00012  -0.00046  -0.00034   1.93466
   A16        1.93788  -0.00023   0.00010  -0.00165  -0.00155   1.93632
   A17        1.89295  -0.00003  -0.00007   0.00029   0.00022   1.89317
   A18        1.89341   0.00002  -0.00008   0.00032   0.00024   1.89365
   A19        1.89950   0.00008  -0.00010   0.00049   0.00039   1.89989
    D1       -0.00458   0.00027   0.00032   0.01037   0.01069   0.00611
    D2        3.13879   0.00013   0.00014   0.00551   0.00565  -3.13875
    D3        3.13358   0.00016   0.00016   0.00530   0.00544   3.13903
    D4       -0.00623   0.00002  -0.00003   0.00043   0.00040  -0.00583
    D5        0.00618  -0.00037  -0.00040  -0.01385  -0.01425  -0.00807
    D6       -3.13849  -0.00014  -0.00016  -0.00571  -0.00588   3.13882
    D7       -3.13196  -0.00026  -0.00023  -0.00874  -0.00897  -3.14093
    D8        0.00657  -0.00003   0.00001  -0.00059  -0.00060   0.00596
    D9        3.11593   0.00006   0.00015   0.00078   0.00092   3.11686
   D10        1.03241  -0.00001   0.00015   0.00003   0.00017   1.03258
   D11       -1.08140   0.00006   0.00012   0.00084   0.00096  -1.08044
   D12       -0.02978  -0.00007  -0.00006  -0.00532  -0.00538  -0.03516
   D13       -2.11331  -0.00014  -0.00006  -0.00607  -0.00613  -2.11944
   D14        2.05607  -0.00007  -0.00008  -0.00526  -0.00535   2.05073
   D15        0.00091  -0.00005  -0.00010  -0.00220  -0.00230  -0.00139
   D16        3.14065   0.00010   0.00009   0.00289   0.00298  -3.13956
   D17        0.00319  -0.00019  -0.00017  -0.00700  -0.00717  -0.00398
   D18        3.14139  -0.00003   0.00000  -0.00107  -0.00108   3.14031
   D19       -0.00592   0.00035   0.00036   0.01319   0.01355   0.00762
   D20        3.13920   0.00009   0.00008   0.00384   0.00390  -3.14008
   D21        3.13933   0.00018   0.00018   0.00679   0.00698  -3.13688
   D22        0.00127  -0.00007  -0.00010  -0.00256  -0.00267  -0.00140
         Item               Value     Threshold  Converged?
 Maximum Force            0.001300     0.000015     NO 
 RMS     Force            0.000342     0.000010     NO 
 Maximum Displacement     0.021554     0.000060     NO 
 RMS     Displacement     0.005315     0.000040     NO 
 Predicted change in Energy=-2.059379D-05
 GradGradGradGradGradGradGradGradGradGradGradGradGradGradGradGradGradGrad

                          Input orientation:                          
 ---------------------------------------------------------------------
 Center     Atomic      Atomic             Coordinates (Angstroms)
 Number     Number       Type             X           Y           Z
 ---------------------------------------------------------------------
      1          7           0        0.736597   -0.024107   -0.004123
      2          6           0       -0.117233    1.046540    0.004008
      3          7           0       -1.384076    0.679309    0.011620
      4          6           0       -1.354242   -0.697416    0.006436
      5          6           0       -0.055770   -1.155707   -0.009514
      6          6           0        2.188285    0.027734   -0.016681
      7          1           0        0.248286    2.072516    0.006930
      8          1           0       -2.269044   -1.286727    0.011952
      9          1           0        0.372016   -2.154435   -0.018965
     10          1           0        2.585612   -0.995577    0.004834
     11          1           0        2.568806    0.568360    0.864119
     12          1           0        2.556582    0.526559   -0.927076
 ---------------------------------------------------------------------
                    Distance matrix (angstroms):
                    1          2          3          4          5
     1  N    0.000000
     2  C    1.369444   0.000000
     3  N    2.234345   1.319017   0.000000
     4  C    2.196603   2.138124   1.377058   0.000000
     5  C    1.381446   2.203146   2.265420   1.377067   0.000000
     6  C    1.452668   2.520676   3.631407   3.616058   2.537000
     7  H    2.152765   1.089147   2.146078   3.200096   3.242552
     8  H    3.260115   3.174034   2.156031   1.088202   2.217252
     9  H    2.161351   3.238230   3.333902   2.259096   1.086531
    10  H    2.088706   3.387568   4.308563   3.951120   2.646271
    11  H    2.112309   2.860638   4.045286   4.210476   3.259455
    12  H    2.113627   2.878643   4.053797   4.202868   3.239803
                    6          7          8          9         10
     6  C    0.000000
     7  H    2.818738   0.000000
     8  H    4.647194   4.197796   0.000000
     9  H    2.839138   4.228841   2.780121   0.000000
    10  H    1.097952   3.856980   4.863384   2.498705   0.000000
    11  H    1.101308   2.895180   5.250936   3.608232   1.784532
    12  H    1.101494   2.930969   5.239891   3.575574   1.784992
                   11         12
    11  H    0.000000
    12  H    1.791724   0.000000
 Stoichiometry    C4H6N2
 Framework group  C1[X(C4H6N2)]
 Deg. of freedom    30
 Full point group                 C1      NOp   1
 Largest Abelian subgroup         C1      NOp   1
 Largest concise Abelian subgroup C1      NOp   1
                         Standard orientation:                         
 ---------------------------------------------------------------------
 Center     Atomic      Atomic             Coordinates (Angstroms)
 Number     Number       Type             X           Y           Z
 ---------------------------------------------------------------------
      1          7           0        0.611440    0.018476   -0.002507
      2          6           0       -0.197603   -1.086427    0.001193
      3          7           0       -1.478518   -0.771688    0.000711
      4          6           0       -1.505380    0.605106   -0.001656
      5          6           0       -0.226808    1.116524    0.002537
      6          6           0        2.064084    0.026488   -0.000087
      7          1           0        0.209836   -2.096494    0.001117
      8          1           0       -2.443696    1.156234   -0.003751
      9          1           0        0.159534    2.132047    0.003595
     10          1           0        2.418765    1.065145   -0.029905
     11          1           0        2.460420   -0.502964   -0.880700
     12          1           0        2.458930   -0.451635    0.910288
 ---------------------------------------------------------------------
 Rotational constants (GHZ):      9.1306069      3.5894711      2.6197806
 Standard basis: CC-pVDZ (5D, 7F)
 There are   120 symmetry adapted cartesian basis functions of A   symmetry.
 There are   114 symmetry adapted basis functions of A   symmetry.
   114 basis functions,   240 primitive gaussians,   120 cartesian basis functions
    22 alpha electrons       22 beta electrons
       nuclear repulsion energy       225.4770503663 Hartrees.
 NAtoms=   12 NActive=   12 NUniq=   12 SFac= 1.00D+00 NAtFMM=   60 NAOKFM=F Big=F
 Integral buffers will be    131072 words long.
 Raffenetti 2 integral format.
 Two-electron integral symmetry is turned on.
 One-electron integrals computed using PRISM.
 NBasis=   114 RedAO= T EigKep=  1.65D-03  NBF=   114
 NBsUse=   114 1.00D-06 EigRej= -1.00D+00 NBFU=   114
 Initial guess from the checkpoint file:  "im1.chk"
 B after Tr=     0.000000    0.000000    0.000000
         Rot=    1.000000    0.000067   -0.000026    0.000290 Ang=   0.03 deg.
 ExpMin= 1.22D-01 ExpMax= 9.05D+03 ExpMxC= 3.09D+02 IAcc=1 IRadAn=         1 AccDes= 0.00D+00
 Harris functional with IExCor=  402 and IRadAn=       1 diagonalized for initial guess.
 HarFok:  IExCor=  402 AccDes= 0.00D+00 IRadAn=         1 IDoV= 1 UseB2=F ITyADJ=14
 ICtDFT=  3500011 ScaDFX=  1.000000  1.000000  1.000000  1.000000
 FoFCou: FMM=F IPFlag=           0 FMFlag=      100000 FMFlg1=           0
         NFxFlg=           0 DoJE=T BraDBF=F KetDBF=T FulRan=T
         wScrn=  0.000000 ICntrl=     500 IOpCl=  0 I1Cent=   200000004 NGrid=           0
         NMat0=    1 NMatS0=      1 NMatT0=    0 NMatD0=    1 NMtDS0=    0 NMtDT0=    0
 Petite list used in FoFCou.
 Keep R1 ints in memory in canonical form, NReq=22502432.
 Requested convergence on RMS density matrix=1.00D-08 within 128 cycles.
 Requested convergence on MAX density matrix=1.00D-06.
 Requested convergence on             energy=1.00D-06.
 No special actions if energy rises.
 Integral accuracy reduced to 1.0D-05 until final iterations.
 Initial convergence to 1.0D-05 achieved.  Increase integral accuracy.
 SCF Done:  E(RB3LYP) =  -265.541392873     A.U. after   10 cycles
            NFock= 10  Conv=0.38D-08     -V/T= 2.0071
 Calling FoFJK, ICntrl=      2127 FMM=F ISym2X=0 I1Cent= 0 IOpClX= 0 NMat=1 NMatS=1 NMatT=0.
 ***** Axes restored to original set *****
 -------------------------------------------------------------------
 Center     Atomic                   Forces (Hartrees/Bohr)
 Number     Number              X              Y              Z
 -------------------------------------------------------------------
      1        7           0.000589030    0.000392759   -0.000687112
      2        6          -0.000091469   -0.000571701    0.000468842
      3        7           0.000032278   -0.000009422    0.000221005
      4        6          -0.000373643   -0.000254091   -0.000707252
      5        6          -0.000357986    0.000240578    0.000881037
      6        6          -0.000105906   -0.000082409   -0.000192939
      7        1           0.000012501   -0.000050776    0.000007613
      8        1          -0.000053110    0.000088378   -0.000086650
      9        1           0.000063031    0.000170455    0.000092272
     10        1           0.000026187    0.000160659    0.000033665
     11        1           0.000057719   -0.000037933   -0.000097012
     12        1           0.000201367   -0.000046498    0.000066531
 -------------------------------------------------------------------
 Cartesian Forces:  Max     0.000881037 RMS     0.000309642

 GradGradGradGradGradGradGradGradGradGradGradGradGradGradGradGradGradGrad
 Berny optimization.
 Using GEDIIS/GDIIS optimizer.
 FormGI is forming the generalized inverse of G from B-inverse, IUseBI=4.
 Internal  Forces:  Max     0.000447072 RMS     0.000194210
 Search for a local minimum.
 Step number   4 out of a maximum of  100
 All quantities printed in internal units (Hartrees-Bohrs-Radians)
 Mixed Optimization -- En-DIIS/RFO-DIIS
 Swapping is turned off.
 Update second derivatives using D2CorX and points    1    2    3    4
 DE= -8.50D-06 DEPred=-2.06D-05 R= 4.13D-01
 Trust test= 4.13D-01 RLast= 3.14D-02 DXMaxT set to 3.74D-01
 ITU=  0  1  1  0
     Eigenvalues ---    0.01140   0.01736   0.02238   0.02328   0.02355
     Eigenvalues ---    0.02424   0.04854   0.07516   0.07741   0.13045
     Eigenvalues ---    0.15997   0.16000   0.16006   0.16091   0.16475
     Eigenvalues ---    0.21786   0.23648   0.28751   0.34414   0.34475
     Eigenvalues ---    0.34571   0.35323   0.35710   0.35767   0.38479
     Eigenvalues ---    0.43665   0.45584   0.48335   0.52314   0.61479
 En-DIIS/RFO-DIIS IScMMF=        0 using points:     4    3
 RFO step:  Lambda=-5.38546826D-06.
 DidBck=T Rises=F RFO-DIIS coefs:    0.63217    0.36783
 Iteration  1 RMS(Cart)=  0.00306402 RMS(Int)=  0.00000667
 Iteration  2 RMS(Cart)=  0.00000714 RMS(Int)=  0.00000383
 Iteration  3 RMS(Cart)=  0.00000000 RMS(Int)=  0.00000383
 Variable       Old X    -DE/DX   Delta X   Delta X   Delta X     New X
                                 (Linear)    (Quad)   (Total)
    R1        2.58787  -0.00024   0.00018  -0.00061  -0.00043   2.58744
    R2        2.61056   0.00024  -0.00092   0.00192   0.00100   2.61156
    R3        2.74514   0.00018   0.00158  -0.00233  -0.00075   2.74439
    R4        2.49258   0.00010   0.00055  -0.00083  -0.00028   2.49230
    R5        2.05819  -0.00005   0.00014  -0.00030  -0.00015   2.05804
    R6        2.60226  -0.00015  -0.00044   0.00060   0.00016   2.60242
    R7        2.60228   0.00013   0.00090  -0.00133  -0.00043   2.60185
    R8        2.05640   0.00000   0.00014  -0.00021  -0.00008   2.05633
    R9        2.05325  -0.00013   0.00026  -0.00065  -0.00039   2.05285
   R10        2.07483  -0.00014  -0.00009  -0.00010  -0.00018   2.07464
   R11        2.08117  -0.00007   0.00001  -0.00011  -0.00011   2.08106
   R12        2.08152  -0.00001   0.00005  -0.00006  -0.00001   2.08151
    A1        1.85753  -0.00045   0.00037  -0.00188  -0.00151   1.85602
    A2        2.20833   0.00029  -0.00097   0.00247   0.00149   2.20982
    A3        2.21729   0.00016   0.00062  -0.00058   0.00004   2.21733
    A4        1.96188   0.00033  -0.00045   0.00165   0.00120   1.96308
    A5        2.12614  -0.00019   0.00065  -0.00168  -0.00102   2.12512
    A6        2.19515  -0.00014  -0.00020   0.00003  -0.00017   2.19499
    A7        1.83125   0.00005   0.00031  -0.00043  -0.00013   1.83112
    A8        1.93178  -0.00031  -0.00032  -0.00030  -0.00062   1.93116
    A9        2.12138   0.00006   0.00012  -0.00018  -0.00005   2.12133
   A10        2.23002   0.00026   0.00020   0.00048   0.00068   2.23070
   A11        1.84230   0.00038   0.00011   0.00099   0.00110   1.84340
   A12        2.12604  -0.00032   0.00106  -0.00293  -0.00187   2.12417
   A13        2.31482  -0.00006  -0.00116   0.00195   0.00079   2.31561
   A14        1.90520   0.00005  -0.00040   0.00085   0.00045   1.90565
   A15        1.93466   0.00005   0.00012   0.00000   0.00013   1.93479
   A16        1.93632   0.00029   0.00057   0.00034   0.00091   1.93724
   A17        1.89317  -0.00010  -0.00008  -0.00046  -0.00054   1.89262
   A18        1.89365  -0.00014  -0.00009  -0.00035  -0.00044   1.89321
   A19        1.89989  -0.00016  -0.00014  -0.00041  -0.00055   1.89934
    D1        0.00611  -0.00027  -0.00393  -0.00151  -0.00544   0.00067
    D2       -3.13875  -0.00013  -0.00208  -0.00091  -0.00299   3.14145
    D3        3.13903  -0.00015  -0.00200  -0.00047  -0.00246   3.13657
    D4       -0.00583  -0.00001  -0.00015   0.00013  -0.00001  -0.00585
    D5       -0.00807   0.00040   0.00524   0.00289   0.00812   0.00005
    D6        3.13882   0.00014   0.00216   0.00064   0.00281  -3.14156
    D7       -3.14093   0.00028   0.00330   0.00182   0.00512  -3.13581
    D8        0.00596   0.00002   0.00022  -0.00043  -0.00019   0.00577
    D9        3.11686  -0.00012  -0.00034  -0.00349  -0.00383   3.11302
   D10        1.03258  -0.00006  -0.00006  -0.00346  -0.00352   1.02906
   D11       -1.08044  -0.00009  -0.00035  -0.00318  -0.00353  -1.08397
   D12       -0.03516   0.00002   0.00198  -0.00224  -0.00026  -0.03542
   D13       -2.11944   0.00008   0.00225  -0.00221   0.00005  -2.11939
   D14        2.05073   0.00005   0.00197  -0.00193   0.00004   2.05077
   D15       -0.00139   0.00002   0.00085  -0.00055   0.00030  -0.00109
   D16       -3.13956  -0.00013  -0.00109  -0.00118  -0.00227   3.14136
   D17       -0.00398   0.00025   0.00264   0.00246   0.00510   0.00112
   D18        3.14031   0.00005   0.00040   0.00057   0.00097   3.14128
   D19        0.00762  -0.00041  -0.00498  -0.00337  -0.00835  -0.00073
   D20       -3.14008  -0.00011  -0.00143  -0.00079  -0.00222   3.14088
   D21       -3.13688  -0.00020  -0.00257  -0.00133  -0.00390  -3.14078
   D22       -0.00140   0.00010   0.00098   0.00125   0.00224   0.00084
         Item               Value     Threshold  Converged?
 Maximum Force            0.000447     0.000015     NO 
 RMS     Force            0.000194     0.000010     NO 
 Maximum Displacement     0.011434     0.000060     NO 
 RMS     Displacement     0.003063     0.000040     NO 
 Predicted change in Energy=-9.198572D-06
 GradGradGradGradGradGradGradGradGradGradGradGradGradGradGradGradGradGrad

                          Input orientation:                          
 ---------------------------------------------------------------------
 Center     Atomic      Atomic             Coordinates (Angstroms)
 Number     Number       Type             X           Y           Z
 ---------------------------------------------------------------------
      1          7           0        0.737032   -0.023520   -0.003962
      2          6           0       -0.117705    1.046087    0.006839
      3          7           0       -1.384490    0.679157    0.012505
      4          6           0       -1.354777   -0.697636    0.003576
      5          6           0       -0.056215   -1.155162   -0.006085
      6          6           0        2.188331    0.027603   -0.018269
      7          1           0        0.247823    2.071970    0.010837
      8          1           0       -2.269641   -1.286799    0.005901
      9          1           0        0.372846   -2.153131   -0.014109
     10          1           0        2.585633   -0.995571    0.005197
     11          1           0        2.570214    0.569802    0.860901
     12          1           0        2.556769    0.524250   -0.929790
 ---------------------------------------------------------------------
                    Distance matrix (angstroms):
                    1          2          3          4          5
     1  N    0.000000
     2  C    1.369216   0.000000
     3  N    2.234923   1.318868   0.000000
     4  C    2.197760   2.137972   1.377143   0.000000
     5  C    1.381976   2.202146   2.264815   1.376839   0.000000
     6  C    1.452270   2.521059   3.631875   3.616636   2.537138
     7  H    2.151888   1.089065   2.145781   3.199859   3.241467
     8  H    3.261296   3.173828   2.156043   1.088162   2.217369
     9  H    2.160550   3.236676   3.333286   2.259084   1.086324
    10  H    2.088611   3.387685   4.308903   3.951658   2.646689
    11  H    2.112008   2.860276   4.046161   4.212714   3.259647
    12  H    2.113919   2.881389   4.055298   4.202900   3.240577
                    6          7          8          9         10
     6  C    0.000000
     7  H    2.818839   0.000000
     8  H    4.647768   4.197497   0.000000
     9  H    2.837534   4.227024   2.780948   0.000000
    10  H    1.097855   3.856837   4.864001   2.497348   0.000000
    11  H    1.101252   2.893547   5.253779   3.606721   1.784057
    12  H    1.101488   2.934527   5.239241   3.574403   1.784625
                   11         12
    11  H    0.000000
    12  H    1.791321   0.000000
 Stoichiometry    C4H6N2
 Framework group  C1[X(C4H6N2)]
 Deg. of freedom    30
 Full point group                 C1      NOp   1
 Largest Abelian subgroup         C1      NOp   1
 Largest concise Abelian subgroup C1      NOp   1
                         Standard orientation:                         
 ---------------------------------------------------------------------
 Center     Atomic      Atomic             Coordinates (Angstroms)
 Number     Number       Type             X           Y           Z
 ---------------------------------------------------------------------
      1          7           0        0.612055    0.017936   -0.002379
      2          6           0       -0.197969   -1.085970   -0.000721
      3          7           0       -1.478797   -0.771499    0.000686
      4          6           0       -1.505737    0.605380    0.001365
      5          6           0       -0.227081    1.115983   -0.001089
      6          6           0        2.064293    0.026641    0.001671
      7          1           0        0.209453   -2.095955   -0.001392
      8          1           0       -2.444079    1.156388    0.002256
      9          1           0        0.160571    2.130786   -0.002009
     10          1           0        2.418954    1.065128   -0.030654
     11          1           0        2.461991   -0.504770   -0.877075
     12          1           0        2.459265   -0.448834    0.913370
 ---------------------------------------------------------------------
 Rotational constants (GHZ):      9.1364269      3.5879518      2.6194284
 Standard basis: CC-pVDZ (5D, 7F)
 There are   120 symmetry adapted cartesian basis functions of A   symmetry.
 There are   114 symmetry adapted basis functions of A   symmetry.
   114 basis functions,   240 primitive gaussians,   120 cartesian basis functions
    22 alpha electrons       22 beta electrons
       nuclear repulsion energy       225.4784952402 Hartrees.
 NAtoms=   12 NActive=   12 NUniq=   12 SFac= 1.00D+00 NAtFMM=   60 NAOKFM=F Big=F
 Integral buffers will be    131072 words long.
 Raffenetti 2 integral format.
 Two-electron integral symmetry is turned on.
 One-electron integrals computed using PRISM.
 NBasis=   114 RedAO= T EigKep=  1.65D-03  NBF=   114
 NBsUse=   114 1.00D-06 EigRej= -1.00D+00 NBFU=   114
 Initial guess from the checkpoint file:  "im1.chk"
 B after Tr=     0.000000    0.000000    0.000000
         Rot=    1.000000    0.000121    0.000013    0.000024 Ang=   0.01 deg.
 Keep R1 ints in memory in canonical form, NReq=22502432.
 Requested convergence on RMS density matrix=1.00D-08 within 128 cycles.
 Requested convergence on MAX density matrix=1.00D-06.
 Requested convergence on             energy=1.00D-06.
 No special actions if energy rises.
 SCF Done:  E(RB3LYP) =  -265.541401444     A.U. after    8 cycles
            NFock=  8  Conv=0.82D-08     -V/T= 2.0071
 Calling FoFJK, ICntrl=      2127 FMM=F ISym2X=0 I1Cent= 0 IOpClX= 0 NMat=1 NMatS=1 NMatT=0.
 ***** Axes restored to original set *****
 -------------------------------------------------------------------
 Center     Atomic                   Forces (Hartrees/Bohr)
 Number     Number              X              Y              Z
 -------------------------------------------------------------------
      1        7          -0.000310334   -0.000154110    0.000064908
      2        6           0.000117508   -0.000004214    0.000065920
      3        7           0.000023544   -0.000031407   -0.000120000
      4        6          -0.000230379   -0.000092695    0.000119950
      5        6           0.000170035    0.000148450   -0.000129281
      6        6           0.000122765    0.000029778   -0.000007277
      7        1          -0.000024935    0.000058786    0.000011595
      8        1          -0.000039786    0.000046069    0.000017070
      9        1           0.000009129   -0.000040732   -0.000015676
     10        1          -0.000010523    0.000070538    0.000026299
     11        1           0.000078816    0.000005405   -0.000049058
     12        1           0.000094159   -0.000035867    0.000015551
 -------------------------------------------------------------------
 Cartesian Forces:  Max     0.000310334 RMS     0.000099041

 GradGradGradGradGradGradGradGradGradGradGradGradGradGradGradGradGradGrad
 Berny optimization.
 Using GEDIIS/GDIIS optimizer.
 FormGI is forming the generalized inverse of G from B-inverse, IUseBI=4.
 Internal  Forces:  Max     0.000287047 RMS     0.000065103
 Search for a local minimum.
 Step number   5 out of a maximum of  100
 All quantities printed in internal units (Hartrees-Bohrs-Radians)
 Mixed Optimization -- En-DIIS/RFO-DIIS
 Swapping is turned off.
 Update second derivatives using D2CorX and points    1    2    3    4    5
 DE= -8.57D-06 DEPred=-9.20D-06 R= 9.32D-01
 TightC=F SS=  1.41D+00  RLast= 1.81D-02 DXNew= 6.2819D-01 5.4396D-02
 Trust test= 9.32D-01 RLast= 1.81D-02 DXMaxT set to 3.74D-01
 ITU=  1  0  1  1  0
     Eigenvalues ---    0.01058   0.01736   0.02243   0.02325   0.02366
     Eigenvalues ---    0.02436   0.05472   0.07523   0.07737   0.13219
     Eigenvalues ---    0.16000   0.16019   0.16046   0.16128   0.16749
     Eigenvalues ---    0.22970   0.23454   0.28511   0.34442   0.34477
     Eigenvalues ---    0.34530   0.35731   0.35751   0.36521   0.40000
     Eigenvalues ---    0.43866   0.45344   0.48513   0.52418   0.61840
 En-DIIS/RFO-DIIS IScMMF=        0 using points:     5    4    3
 RFO step:  Lambda=-4.60318455D-07.
 DidBck=F Rises=F RFO-DIIS coefs:    0.87869    0.07362    0.04769
 Iteration  1 RMS(Cart)=  0.00093528 RMS(Int)=  0.00000068
 Iteration  2 RMS(Cart)=  0.00000066 RMS(Int)=  0.00000023
 Variable       Old X    -DE/DX   Delta X   Delta X   Delta X     New X
                                 (Linear)    (Quad)   (Total)
    R1        2.58744  -0.00001   0.00008  -0.00012  -0.00005   2.58739
    R2        2.61156  -0.00003  -0.00024   0.00022  -0.00002   2.61153
    R3        2.74439   0.00029   0.00030   0.00023   0.00053   2.74492
    R4        2.49230   0.00006   0.00011  -0.00008   0.00003   2.49233
    R5        2.05804   0.00005   0.00004   0.00006   0.00010   2.05813
    R6        2.60242   0.00000  -0.00008   0.00011   0.00004   2.60246
    R7        2.60185   0.00017   0.00017   0.00008   0.00025   2.60210
    R8        2.05633   0.00001   0.00003  -0.00002   0.00001   2.05633
    R9        2.05285   0.00004   0.00008   0.00000   0.00008   2.05294
   R10        2.07464  -0.00007   0.00001  -0.00020  -0.00019   2.07445
   R11        2.08106  -0.00001   0.00001  -0.00005  -0.00004   2.08102
   R12        2.08151   0.00000   0.00001  -0.00001   0.00000   2.08151
    A1        1.85602   0.00000   0.00023  -0.00024  -0.00001   1.85601
    A2        2.20982  -0.00003  -0.00031   0.00025  -0.00005   2.20977
    A3        2.21733   0.00003   0.00008  -0.00001   0.00007   2.21739
    A4        1.96308  -0.00002  -0.00020   0.00010  -0.00011   1.96297
    A5        2.12512   0.00006   0.00021   0.00010   0.00031   2.12543
    A6        2.19499  -0.00004  -0.00001  -0.00020  -0.00020   2.19478
    A7        1.83112   0.00007   0.00005   0.00024   0.00030   1.83142
    A8        1.93116  -0.00011   0.00003  -0.00041  -0.00038   1.93078
    A9        2.12133   0.00000   0.00002  -0.00015  -0.00013   2.12120
   A10        2.23070   0.00011  -0.00006   0.00056   0.00051   2.23121
   A11        1.84340   0.00005  -0.00012   0.00032   0.00020   1.84361
   A12        2.12417  -0.00002   0.00036  -0.00050  -0.00014   2.12403
[...]
    R1        2.58807   0.00000   0.00000   0.00000   0.00000   2.58807
    R2        2.61049   0.00000   0.00000   0.00000   0.00000   2.61050
    R3        2.74105   0.00000   0.00000   0.00000   0.00000   2.74105
    R4        2.49082   0.00000   0.00000   0.00000   0.00000   2.49082
    R5        2.05817   0.00000   0.00000   0.00000   0.00000   2.05817
    R6        2.60260   0.00000   0.00000   0.00000   0.00000   2.60260
    R7        2.60296   0.00000   0.00000   0.00000   0.00000   2.60296
    R8        2.05659   0.00000   0.00000   0.00000   0.00000   2.05659
    R9        2.05312   0.00000   0.00000   0.00000   0.00000   2.05312
   R10        2.08169   0.00000   0.00000   0.00000   0.00000   2.08169
   R11        2.07586   0.00000   0.00000   0.00000   0.00000   2.07586
   R12        2.08169   0.00000   0.00000   0.00000   0.00000   2.08169
    A1        1.85649   0.00000   0.00000   0.00000   0.00000   1.85649
    A2        2.21366   0.00000   0.00000   0.00000   0.00000   2.21366
    A3        2.21304   0.00000   0.00000   0.00000   0.00000   2.21304
    A4        1.96379   0.00000   0.00000   0.00000   0.00000   1.96379
    A5        2.12237   0.00000   0.00000   0.00000   0.00000   2.12238
    A6        2.19702   0.00000   0.00000   0.00000   0.00000   2.19702
    A7        1.83015   0.00000   0.00000   0.00000   0.00000   1.83014
    A8        1.93220   0.00000   0.00000   0.00000   0.00000   1.93220
    A9        2.12038   0.00000   0.00000   0.00000   0.00000   2.12038
   A10        2.23061   0.00000   0.00000   0.00000   0.00000   2.23061
   A11        1.84216   0.00000   0.00000   0.00000   0.00000   1.84216
   A12        2.12622   0.00000   0.00000   0.00000   0.00000   2.12622
   A13        2.31480   0.00000   0.00000   0.00000   0.00000   2.31481
   A14        1.93713   0.00000   0.00000   0.00000   0.00000   1.93713
   A15        1.90230   0.00000   0.00000   0.00000   0.00000   1.90230
   A16        1.93713   0.00000   0.00000   0.00000   0.00000   1.93713
   A17        1.89404   0.00000   0.00000   0.00000   0.00000   1.89404
   A18        1.89822   0.00000   0.00000   0.00000   0.00000   1.89823
   A19        1.89404   0.00000   0.00000   0.00000   0.00000   1.89404
    D1        0.00000   0.00000   0.00000   0.00000   0.00000   0.00000
    D2        3.14159   0.00000   0.00000   0.00000   0.00000   3.14159
    D3       -3.14159   0.00000   0.00000   0.00000   0.00000  -3.14159
    D4        0.00000   0.00000   0.00000   0.00000   0.00000   0.00000
    D5        0.00000   0.00000   0.00000   0.00000   0.00000   0.00000
    D6       -3.14159   0.00000   0.00000   0.00000   0.00000   3.14159
    D7        3.14159   0.00000   0.00000   0.00000   0.00000   3.14159
    D8        0.00000   0.00000   0.00000   0.00000   0.00000   0.00000
    D9        2.08503   0.00000   0.00000   0.00000   0.00000   2.08503
   D10        0.00000   0.00000   0.00000   0.00000   0.00000   0.00000
   D11       -2.08503   0.00000   0.00000   0.00000   0.00000  -2.08503
   D12       -1.05656   0.00000   0.00000  -0.00001  -0.00001  -1.05656
   D13       -3.14159   0.00000   0.00000   0.00000   0.00000   3.14159
   D14        1.05657   0.00000   0.00000   0.00000   0.00000   1.05656
   D15        0.00000   0.00000   0.00000   0.00000   0.00000   0.00000
   D16       -3.14159   0.00000   0.00000   0.00000   0.00000  -3.14159
   D17        0.00000   0.00000   0.00000   0.00000   0.00000   0.00000
   D18       -3.14159   0.00000   0.00000   0.00000   0.00000   3.14159
   D19        0.00000   0.00000   0.00000   0.00000   0.00000   0.00000
   D20        3.14159   0.00000   0.00000   0.00000   0.00000   3.14159
   D21        3.14159   0.00000   0.00000   0.00000   0.00000   3.14159
   D22       -0.00001   0.00000   0.00000   0.00001   0.00001   0.00000
         Item               Value     Threshold  Converged?
 Maximum Force            0.000001     0.000450     YES
 RMS     Force            0.000000     0.000300     YES
 Maximum Displacement     0.000009     0.001800     YES
 RMS     Displacement     0.000003     0.001200     YES
 Predicted change in Energy=-9.102572D-12
 Optimization completed.
    -- Stationary point found.
                           ----------------------------
                           !   Optimized Parameters   !
                           ! (Angstroms and Degrees)  !
 --------------------------                            --------------------------
 ! Name  Definition              Value          Derivative Info.                !
 --------------------------------------------------------------------------------
 ! R1    R(1,2)                  1.3695         -DE/DX =    0.0                 !
 ! R2    R(1,5)                  1.3814         -DE/DX =    0.0                 !
 ! R3    R(1,6)                  1.4505         -DE/DX =    0.0                 !
 ! R4    R(2,3)                  1.3181         -DE/DX =    0.0                 !
 ! R5    R(2,7)                  1.0891         -DE/DX =    0.0                 !
 ! R6    R(3,4)                  1.3772         -DE/DX =    0.0                 !
 ! R7    R(4,5)                  1.3774         -DE/DX =    0.0                 !
 ! R8    R(4,8)                  1.0883         -DE/DX =    0.0                 !
 ! R9    R(5,9)                  1.0865         -DE/DX =    0.0                 !
 ! R10   R(6,10)                 1.1016         -DE/DX =    0.0                 !
 ! R11   R(6,11)                 1.0985         -DE/DX =    0.0                 !
 ! R12   R(6,12)                 1.1016         -DE/DX =    0.0                 !
 ! A1    A(2,1,5)              106.3688         -DE/DX =    0.0                 !
 ! A2    A(2,1,6)              126.8332         -DE/DX =    0.0                 !
 ! A3    A(5,1,6)              126.7981         -DE/DX =    0.0                 !
 ! A4    A(1,2,3)              112.5168         -DE/DX =    0.0                 !
 ! A5    A(1,2,7)              121.6031         -DE/DX =    0.0                 !
 ! A6    A(3,2,7)              125.8801         -DE/DX =    0.0                 !
 ! A7    A(2,3,4)              104.8596         -DE/DX =    0.0                 !
 ! A8    A(3,4,5)              110.7066         -DE/DX =    0.0                 !
 ! A9    A(3,4,8)              121.489          -DE/DX =    0.0                 !
 ! A10   A(5,4,8)              127.8044         -DE/DX =    0.0                 !
 ! A11   A(1,5,4)              105.5482         -DE/DX =    0.0                 !
 ! A12   A(1,5,9)              121.8233         -DE/DX =    0.0                 !
 ! A13   A(4,5,9)              132.6285         -DE/DX =    0.0                 !
 ! A14   A(1,6,10)             110.9895         -DE/DX =    0.0                 !
 ! A15   A(1,6,11)             108.9938         -DE/DX =    0.0                 !
 ! A16   A(1,6,12)             110.9893         -DE/DX =    0.0                 !
 ! A17   A(10,6,11)            108.5208         -DE/DX =    0.0                 !
 ! A18   A(10,6,12)            108.7601         -DE/DX =    0.0                 !
 ! A19   A(11,6,12)            108.5206         -DE/DX =    0.0                 !
 ! D1    D(5,1,2,3)              0.0            -DE/DX =    0.0                 !
 ! D2    D(5,1,2,7)            180.0            -DE/DX =    0.0                 !
 ! D3    D(6,1,2,3)           -179.9999         -DE/DX =    0.0                 !
 ! D4    D(6,1,2,7)              0.0001         -DE/DX =    0.0                 !
 ! D5    D(2,1,5,4)             -0.0001         -DE/DX =    0.0                 !
 ! D6    D(2,1,5,9)            180.0001         -DE/DX =    0.0                 !
 ! D7    D(6,1,5,4)            179.9998         -DE/DX =    0.0                 !
 ! D8    D(6,1,5,9)              0.0            -DE/DX =    0.0                 !
 ! D9    D(2,1,6,10)           119.4635         -DE/DX =    0.0                 !
 ! D10   D(2,1,6,11)            -0.0001         -DE/DX =    0.0                 !
 ! D11   D(2,1,6,12)          -119.4633         -DE/DX =    0.0                 !
 ! D12   D(5,1,6,10)           -60.5363         -DE/DX =    0.0                 !
 ! D13   D(5,1,6,11)           180.0001         -DE/DX =    0.0                 !
 ! D14   D(5,1,6,12)            60.5369         -DE/DX =    0.0                 !
 ! D15   D(1,2,3,4)              0.0001         -DE/DX =    0.0                 !
 ! D16   D(7,2,3,4)           -179.9999         -DE/DX =    0.0                 !
 ! D17   D(2,3,4,5)             -0.0001         -DE/DX =    0.0                 !
 ! D18   D(2,3,4,8)            180.0001         -DE/DX =    0.0                 !
 ! D19   D(3,4,5,1)              0.0001         -DE/DX =    0.0                 !
 ! D20   D(3,4,5,9)            179.9999         -DE/DX =    0.0                 !
 ! D21   D(8,4,5,1)            179.9998         -DE/DX =    0.0                 !
 ! D22   D(8,4,5,9)             -0.0004         -DE/DX =    0.0                 !
 --------------------------------------------------------------------------------
 GradGradGradGradGradGradGradGradGradGradGradGradGradGradGradGradGradGrad

 1\1\GINC-BARREL\Freq\RB3LYP\CC-pVDZ\C4H6N2\FLORIAN\26-Nov-2020\0\\# b3
 lyp/cc-pvdz freq geom=allcheck\\im1 opt of inital coordinates generqat
 ed with obabel, sorted as in charmm str file /site/raid1/florian/str/t
 ogether/im1_h_oac.str\\0,1\N,0.7379996238,-0.0278680699,0.0043118924\C
 ,-0.1079464243,1.0205752006,0.2508970701\N,-1.3763281898,0.6631304903,
 0.2228348545\C,-1.3571446768,-0.6854717574,-0.0558882448\C,-0.06283465
 07,-1.1356320328,-0.1952597785\C,2.1872045652,0.0157095705,-0.03883666
 94\H,0.2682867424,2.0242040608,0.4442754362\H,-2.2765993695,-1.2613750
 375,-0.1415437933\H,0.3565361218,-2.1141606771,-0.4120826504\H,2.62480
 56096,-0.64838065,0.723383065\H,2.5200994266,1.043292249,0.1610399232\
 H,2.5617412216,-0.2869733464,-1.0295911051\\Version=ES64L-G09RevD.01\S
 tate=1-A\HF=-265.5422743\RMSD=5.070e-09\RMSF=1.111e-06\ZeroPoint=0.098
 41\Thermal=0.1038145\Dipole=1.497369,-0.358204,-0.1277159\DipoleDeriv=
 -0.8312671,0.0572051,0.0374702,-0.0406852,-0.0468726,0.0160345,0.01728
 87,0.0125121,-0.1155854,0.5766666,-0.080852,-0.0383418,-0.2747881,0.12
 86976,0.041736,-0.0783262,0.0347599,-0.0158097,-0.6863357,0.0605416,0.
 027016,0.0215319,-0.3733782,-0.0195514,0.0189738,-0.0209544,-0.2873072
 ,0.1042943,0.0695754,0.0067299,0.0816083,0.1548782,0.0511292,0.0092126
 ,0.0515629,-0.0970615,0.2060401,-0.0204602,-0.0162673,0.2501251,-0.063
 6166,0.0044554,0.0395182,0.0141882,-0.1273741,0.7125147,-0.0245637,-0.
 0214733,0.0070685,0.1519655,-0.0217818,-0.0149519,-0.0206438,0.2526648
 ,0.03301,-0.0680727,-0.0102063,-0.0517684,0.0049024,-0.0258694,-0.0068
 448,-0.0252831,0.1344489,-0.0163477,-0.0841105,-0.0121924,-0.0637861,0
 .027785,-0.0181102,-0.0080034,-0.0173796,0.1234637,0.0528364,0.0669098
 ,0.017675,0.0303647,0.0081545,-0.0325432,0.0101405,-0.0338569,0.153361
 9,-0.0835733,0.0116245,-0.0131164,0.079908,0.0083226,0.0820455,-0.0727
 516,0.0778721,-0.0196554,0.008368,0.0116435,0.0052004,-0.0788461,-0.06
 35166,-0.02803,-0.0134555,-0.0312851,0.0802337,-0.0762062,0.0005593,0.
 017506,0.0392674,0.0626783,-0.0495144,0.0991996,-0.0414923,-0.0813797\
 Polar=65.894066,1.7946764,56.9849574,-0.92758,5.5348214,30.9996123\PG=
 C01 [X(C4H6N2)]\NImag=0\\0.81046242,0.00263208,0.61502598,-0.02398140,
 0.10015599,0.15027209,-0.16176619,0.08653131,0.02154935,0.69112465,0.0
 9149169,-0.23470360,-0.03958877,0.13587236,0.80618142,0.02257212,-0.03
 941047,-0.06758082,0.00789975,0.13409228,0.15942045,-0.09931614,0.0461
 9363,0.01381223,-0.38444594,-0.06848935,-0.00299563,0.58881284,-0.0135
 5677,-0.00938150,-0.00554825,-0.09038234,-0.11609618,-0.00517607,0.034
 15053,0.45921885,0.00149382,-0.00769786,0.01825566,-0.00750915,-0.0059
 6362,-0.07617781,-0.01044049,0.07223381,0.11815720,-0.08315603,-0.0566
 1051,-0.00820229,-0.02632572,-0.03158001,-0.00519837,-0.09810398,0.014
 37913,0.00399595,0.84495184,0.00654425,-0.00029833,-0.00303135,-0.0896
 8734,-0.06542570,-0.01235489,0.00416610,-0.26629045,-0.04073543,0.1145
 3132,0.58504402,0.00481788,-0.00075918,0.01293308,-0.01717797,-0.01444
 540,0.00779200,0.00189040,-0.04110296,-0.07797177,-0.00205198,0.089373
 99,0.15005163,-0.16767522,-0.07577254,-0.01169234,-0.00583187,-0.02274
 357,-0.00388814,-0.00081130,0.07632766,0.01641589,-0.36289218,0.073341
 70,0.02588815,0.67115703,-0.08925997,-0.23328346,-0.03283365,0.0262065
 5,-0.09324292,-0.02355253,0.00621340,-0.05094037,-0.01445437,0.0913181
 1,-0.11858942,-0.01462479,-0.13928566,0.77125609,-0.01447281,-0.033318
 67,-0.06479694,0.00620369,-0.02179160,0.01170977,0.00196073,-0.0169767
 4,0.01451547,0.02959426,-0.01397799,-0.06753359,-0.04896567,0.14169511
 ,0.13924110,-0.24179929,-0.00383262,0.00587254,-0.02575983,0.00215558,
 0.00103576,0.00526160,0.00437561,0.00101663,0.00293471,-0.00235156,-0.
 00054776,-0.01764800,-0.00281497,-0.00011861,0.49014027,-0.00185881,-0
 .10728530,-0.01038431,0.01647144,0.01362196,0.00413773,0.00910862,-0.0
 0171587,-0.00242268,-0.00301746,-0.00899940,-0.00199123,-0.02879983,0.
 00835915,0.00375142,-0.00363978,0.60053054,0.00627940,-0.01031327,-0.0
 5894396,0.00398720,0.00465267,-0.00850616,0.00199244,-0.00225240,0.007
 90971,-0.00068501,-0.00201516,0.00079478,-0.00547572,0.00281665,-0.004
 03412,0.00189232,0.00774508,0.56512457,0.00753884,0.02205674,0.0042034
 7,-0.08684615,-0.09268637,-0.01684288,-0.00678993,-0.02811702,-0.00574
 351,-0.00494786,-0.00173969,0.00005629,-0.00414962,0.00224218,0.000697
 38,0.00212908,0.00108826,0.00008869,0.09182496,-0.01026286,-0.01772748
 ,-0.00286922,-0.08683551,-0.30325084,-0.05447617,-0.00393846,-0.001775
 75,0.00087045,-0.00104301,0.00220272,-0.00086633,0.00434304,-0.0002107
 2,-0.00069164,-0.00164031,-0.00012750,0.00037131,0.09869563,0.32041192
 ,-0.00245969,-0.00403191,-0.00276229,-0.01563667,-0.05426570,-0.034487
 99,-0.00075873,0.00174027,-0.00492448,0.00019994,-0.00084127,0.0064061
 8,0.00113050,-0.00061607,0.00221858,-0.00047384,0.00027315,-0.00156896
 ,0.01777502,0.05831898,0.03169877,-0.00399166,0.00258839,0.00087280,0.
 00157865,0.00158296,0.00047094,0.00713741,0.00027037,-0.00039009,-0.27
 534235,-0.12860481,-0.01763688,-0.00937662,-0.01636143,-0.00305362,0.0
 0042495,-0.00113431,-0.00019359,0.00035707,0.00008657,0.00004883,0.279
 78488,0.00353741,-0.00030027,-0.00130998,0.00044577,-0.00626418,-0.002
 46165,-0.02550211,-0.01434630,-0.00095676,-0.12674480,-0.12823300,-0.0
 1598573,0.00912487,0.00992352,0.00181932,-0.00005710,0.00095552,-0.000
 11928,-0.00141526,0.00005957,-0.00018797,0.14111315,0.13832711,0.00106
 847,-0.00127589,0.00513497,0.00023647,-0.00250254,0.00507382,-0.005703
 42,-0.00188384,-0.00543887,-0.01725361,-0.01591890,-0.03124033,0.00220
 092,0.00273621,-0.00000834,0.00002850,-0.00008051,0.00152639,-0.000260
 79,-0.00024200,0.00117776,0.01984544,0.01875590,0.02588233,0.01128529,
 -0.02298640,-0.00528972,-0.00661481,-0.00318776,-0.00032274,-0.0043044
 4,0.00513301,0.00145584,0.00748583,0.02036217,0.00386663,-0.10630496,0
 .11341836,0.02647871,0.00127547,0.00047794,0.00003618,0.00103536,-0.00
 069792,-0.00011072,-0.00007001,-0.00071999,-0.00021920,0.09622288,0.01
 239711,-0.01603619,-0.00292235,-0.00316412,-0.00132438,-0.00071219,0.0
 0026739,0.00086552,-0.00122216,-0.00238590,0.00024769,0.00049204,0.103
 27156,-0.29570557,-0.06050513,0.00151023,0.00051838,0.00014695,0.00066
 356,-0.00031588,-0.00049256,0.00045960,-0.00026283,0.00034926,-0.11193
 451,0.31189729,0.00200507,-0.00164950,-0.00443664,-0.00031790,-0.00071
 133,0.00254701,0.00045273,-0.00139719,0.00644269,-0.00082309,-0.000326
 42,-0.00176027,0.02438670,-0.06087002,-0.03367051,0.00024900,0.0001840
 8,-0.00042893,0.00016998,-0.00044358,0.00185993,0.00002399,0.00039171,
 -0.00195726,-0.02589479,0.06464039,0.03214717,-0.02744957,0.02445875,-
 0.02014492,0.00150594,-0.00450222,-0.00487732,-0.00376735,-0.00167660,
 0.00164281,-0.00160126,0.00253726,0.00063468,0.00354482,0.00195475,0.0
 0019203,-0.07909783,0.05498659,-0.06449980,0.00000550,0.00025713,0.000
 09028,-0.00001707,-0.00008994,0.00014784,-0.00004923,-0.00040149,-0.00
 037137,0.09802449,-0.00024129,0.00272033,-0.00373201,0.00042784,0.0001
 4011,0.00028249,-0.00046276,0.00039160,-0.00018569,0.00043875,0.000204
 16,-0.00017543,-0.00032754,0.00046036,-0.00048577,0.06004818,-0.146736
 52,0.11360423,-0.00012959,0.00007633,0.00040907,0.00000877,-0.00002471
 ,0.00018211,0.00002155,0.00000131,0.00013253,-0.06649623,0.15193263,-0
 .00041150,-0.00409152,0.00668041,0.00189648,-0.00090694,-0.00024144,-0
 .00030841,-0.00076981,-0.00045621,-0.00060993,0.00040721,0.00002329,0.
 00039517,0.00060278,0.00082807,-0.06884611,0.11480584,-0.17934194,-0.0
 0000013,-0.00000651,0.00010259,-0.00001048,0.00002151,-0.00001061,-0.0
 0015379,-0.00017314,-0.00025652,0.07409197,-0.12357337,0.18643409,-0.0
 1861528,-0.03943469,-0.00752920,0.00173609,-0.00195311,-0.00044793,0.0
 0019914,-0.00002672,-0.00003061,-0.00145006,-0.00162760,-0.00025986,-0
 .00352595,0.00450954,0.00108588,-0.06884949,-0.06394415,-0.01232909,-0
 .00015845,0.00076355,0.00017475,-0.00045742,0.00033276,0.00008258,0.00
 005805,-0.00018740,-0.00005092,0.00418825,0.01072100,0.00355308,0.0833
 7084,-0.00074211,0.00057568,0.00053949,0.00296406,0.00057997,-0.000085
 52,-0.00113107,0.00017913,0.00018040,0.00056009,-0.00016095,-0.0001881
 6,0.00059667,0.00138797,0.00009652,-0.07701744,-0.29094411,-0.04791206
 ,-0.00051197,0.00042898,0.00004019,-0.00000133,0.00011448,0.00003789,0
 .00015719,0.00017624,0.00008912,-0.00478094,-0.01536915,-0.00463409,0.
 08124514,0.30925220,0.00044792,0.00193146,-0.00152954,0.00056581,0.000
 09136,0.00047609,-0.00025829,0.00014067,-0.00046023,0.00019116,-0.0001
 0946,0.00062454,0.00027921,-0.00004423,0.00079649,-0.01502437,-0.04838
 235,-0.05454357,-0.00008822,-0.00000569,0.00032534,0.00001370,0.000025
 87,-0.00006423,0.00002012,0.00010151,-0.00026325,0.00739008,0.02068569
 ,0.00501776,0.01529406,0.05199019,0.05306770,-0.02551719,0.01417586,0.
 03052949,0.00164517,-0.00596019,0.00259444,-0.00387193,-0.00087686,-0.
 00190708,-0.00155293,0.00252819,0.00052042,0.00351386,0.00185914,0.000
 39803,-0.06901165,0.02026149,0.06890699,0.00000119,0.00027214,0.000020
 33,-0.00002784,-0.00002475,-0.00017320,-0.00001943,-0.00049604,0.00017
 059,0.00471331,-0.00400868,-0.00959635,0.00350428,-0.00133828,-0.00883
 118,0.08662316,-0.00068073,0.00069414,0.00152441,0.00114997,-0.0002156
 6,-0.00028300,-0.00057592,-0.00010868,0.00035391,0.00015430,0.00029866
 ,0.00027318,-0.00007635,0.00058536,0.00038517,0.02326419,-0.06817684,-
 0.06672473,-0.00014648,0.00022865,-0.00034620,-0.00000794,0.00005109,-
 0.00015769,-0.00004363,-0.00006158,-0.00003977,-0.00624707,0.00620355,
 0.01831805,0.00960168,-0.00622044,-0.02642502,-0.02639201,0.06672177,0
 .00264072,0.00046084,0.00677398,-0.00169705,0.00133957,-0.00002490,0.0
 0035643,0.00099251,0.00014864,0.00084296,-0.00047033,-0.00011955,-0.00
 067467,-0.00085508,0.00073402,0.07491594,-0.06763623,-0.26798781,-0.00
 005529,0.00004041,-0.00004543,0.00000896,0.00000707,-0.00007564,0.0001
 3349,0.00029738,-0.00022343,0.00570371,-0.00714384,-0.01877948,0.00045
 727,-0.00015397,-0.00344710,-0.08263248,0.07312169,0.28304670\\0.00000
 124,-0.00000127,-0.00000059,-0.00000188,0.00000037,0.00000010,-0.00000
 035,-0.00000172,-0.00000044,0.00000031,-0.00000209,-0.00000006,0.00000
 073,0.00000018,-0.00000023,-0.00000117,0.00000198,0.00000091,-0.000001
 75,-0.00000015,0.00000006,0.00000091,-0.00000227,-0.00000061,0.0000017
 0,-0.00000010,-0.00000001,0.00000075,0.00000155,0.00000030,-0.00000090
 ,0.00000177,0.00000023,0.00000042,0.00000176,0.00000034\\\@


 You don't have to suffer to be a poet.
 Adolescence is enough suffering for anyone.
                             -- John Ciardi
 Job cpu time:       0 days  0 hours  2 minutes 23.1 seconds.
 File lengths (MBytes):  RWF=     22 Int=      0 D2E=      0 Chk=      3 Scr=      1
 Normal termination of Gaussian 09 at Thu Nov 26 17:40:46 2020.
