 Entering Gaussian System, Link 0=g09
 Initial command:
 /opt/g09/l1.exe "/scratch/data/florian/gaussian_scratch/Gau-15907.inp" -scrdir="/scratch/data/florian/gaussian_scratch/"
 Entering Link 1 = /opt/g09/l1.exe PID=     15909.
  
 Copyright (c) 1988,1990,1992,1993,1995,1998,2003,2009,2013,
            Gaussian, Inc.  All Rights Reserved.
  
 This is part of the Gaussian(R) 09 program.  It is based on
 the Gaussian(R) 03 system (copyright 2003, Gaussian, Inc.),
 the Gaussian(R) 98 system (copyright 1998, Gaussian, Inc.),
 the Gaussian(R) 94 system (copyright 1995, Gaussian, Inc.),
 the Gaussian 92(TM) system (copyright 1992, Gaussian, Inc.),
 the Gaussian 90(TM) system (copyright 1990, Gaussian, Inc.),
 the Gaussian 88(TM) system (copyright 1988, Gaussian, Inc.),
 the Gaussian 86(TM) system (copyright 1986, Carnegie Mellon
 University), and the Gaussian 82(TM) system (copyright 1983,
 Carnegie Mellon University). Gaussian is a federally registered
 trademark of Gaussian, Inc.
  
 This software contains proprietary and confidential information,
 including trade secrets, belonging to Gaussian, Inc.
  
 This software is provided under written license and may be
 used, copied, transmitted, or stored only in accord with that
 written license.
  
 The following legend is applicable only to US Government
 contracts under FAR:
  
                    RESTRICTED RIGHTS LEGEND
  
 Use, reproduction and disclosure by the US Government is
 subject to restrictions as set forth in subparagraphs (a)
 and (c) of the Commercial Computer Software - Restricted
 Rights clause in FAR 52.227-19.
  
 Gaussian, Inc.
 340 Quinnipiac St., Bldg. 40, Wallingford CT 06492
  
  
 ---------------------------------------------------------------
 Warning -- This program may not be used in any manner that
 competes with the business of Gaussian, Inc. or will provide
 assistance to any competitor of Gaussian, Inc.  The licensee
 of this program is prohibited from giving any competitor of
 Gaussian, Inc. access to this program.  By using this program,
 the user acknowledges that Gaussian, Inc. is engaged in the
 business of creating and licensing software in the field of
 computational chemistry and represents and warrants to the
 licensee that it is not a competitor of Gaussian, Inc. and that
 it will not use this program in any manner prohibited above.
 ---------------------------------------------------------------
  

 Cite this work as:
 Gaussian 09, Revision D.01,
 M. J. Frisch, G. W. Trucks, H. B. Schlegel, G. E. Scuseria, 
 M. A. Robb, J. R. Cheeseman, G. Scalmani, V. Barone, B. Mennucci, 
 G. A. Petersson, H. Nakatsuji, M. Caricato, X. Li, H. P. Hratchian, 
 A. F. Izmaylov, J. Bloino, G. Zheng, J. L. Sonnenberg, M. Hada, 
 M. Ehara, K. Toyota, R. Fukuda, J. Hasegawa, M. Ishida, T. Nakajima, 
 Y. Honda, O. Kitao, H. Nakai, T. Vreven, J. A. Montgomery, Jr., 
 J. E. Peralta, F. Ogliaro, M. Bearpark, J. J. Heyd, E. Brothers, 
 K. N. Kudin, V. N. Staroverov, T. Keith, R. Kobayashi, J. Normand, 
 K. Raghavachari, A. Rendell, J. C. Burant, S. S. Iyengar, J. Tomasi, 
 M. Cossi, N. Rega, J. M. Millam, M. Klene, J. E. Knox, J. B. Cross, 
 V. Bakken, C. Adamo, J. Jaramillo, R. Gomperts, R. E. Stratmann, 
 O. Yazyev, A. J. Austin, R. Cammi, C. Pomelli, J. W. Ochterski, 
 R. L. Martin, K. Morokuma, V. G. Zakrzewski, G. A. Voth, 
 P. Salvador, J. J. Dannenberg, S. Dapprich, A. D. Daniels, 
 O. Farkas, J. B. Foresman, J. V. Ortiz, J. Cioslowski, 
 and D. J. Fox, Gaussian, Inc., Wallingford CT, 2013.
 
 ******************************************
 Gaussian 09:  ES64L-G09RevD.01 24-Apr-2013
                19-Nov-2020 
 ******************************************
 %chk=hoac.chk
 %mem=4GB
 %NPROCSHARED=3
 Will use up to    3 processors via shared memory.
 ---------------------------------------------------------
 # b3lyp/cc-pvdz opt=(tight, maxcycle=200) density=current
 ---------------------------------------------------------
 1/6=200,7=10,14=-1,18=20,19=15,26=3,38=1/1,3;
 2/9=110,12=2,17=6,18=5,40=1/2;
 3/5=16,11=2,16=1,25=1,30=1,71=1,74=-5/1,2,3;
 4//1;
 5/5=2,38=5/2;
 6/7=2,8=2,9=2,10=2,22=-1,28=1/1;
 7//1,2,3,16;
 1/6=200,7=10,14=-1,18=20,19=15,26=3/3(2);
 2/9=110/2;
 99//99;
 2/9=110/2;
 3/5=16,11=2,16=1,25=1,30=1,71=1,74=-5/1,2,3;
 4/5=5,16=3,69=1/1;
 5/5=2,38=5/2;
 7//1,2,3,16;
 1/6=200,7=10,14=-1,18=20,19=15,26=3/3(-5);
 2/9=110/2;
 6/7=2,8=2,9=2,10=2,19=2,22=-1,28=1/1;
 99/9=1/99;
 ------------------
 opt of hoac coords
 ------------------
 Symbolic Z-matrix:
 Charge =  0 Multiplicity = 1
 C                     0.84918   1.025     0.03501 
 H                     0.4941    1.78908  -0.62453 
 H                     0.49172   1.21446   1.02558 
 H                     0.49171   0.07273  -0.29712 
 C                     2.35776   1.0232    0.03656 
 O                     2.91138   1.88428  -0.70671 
 O                     2.9078    0.16081   0.78096 
 H                     2.38075  -0.42565   1.28718 
 

 GradGradGradGradGradGradGradGradGradGradGradGradGradGradGradGradGradGrad
 Berny optimization.
 Initialization pass.
                           ----------------------------
                           !    Initial Parameters    !
                           ! (Angstroms and Degrees)  !
 --------------------------                            --------------------------
 ! Name  Definition              Value          Derivative Info.                !
 --------------------------------------------------------------------------------
 ! R1    R(1,2)                  1.07           estimate D2E/DX2                !
 ! R2    R(1,3)                  1.07           estimate D2E/DX2                !
 ! R3    R(1,4)                  1.07           estimate D2E/DX2                !
 ! R4    R(1,5)                  1.5086         estimate D2E/DX2                !
 ! R5    R(5,6)                  1.2651         estimate D2E/DX2                !
 ! R6    R(5,7)                  1.2651         estimate D2E/DX2                !
 ! R7    R(7,8)                  0.937          estimate D2E/DX2                !
 ! A1    A(2,1,3)              109.4711         estimate D2E/DX2                !
 ! A2    A(2,1,4)              109.4708         estimate D2E/DX2                !
 ! A3    A(2,1,5)              109.4714         estimate D2E/DX2                !
 ! A4    A(3,1,4)              109.4711         estimate D2E/DX2                !
 ! A5    A(3,1,5)              109.4713         estimate D2E/DX2                !
 ! A6    A(4,1,5)              109.4716         estimate D2E/DX2                !
 ! A7    A(1,5,6)              115.8619         estimate D2E/DX2                !
 ! A8    A(1,5,7)              115.8622         estimate D2E/DX2                !
 ! A9    A(6,5,7)              128.2759         estimate D2E/DX2                !
 ! A10   A(5,7,8)              120.0002         estimate D2E/DX2                !
 ! D1    D(2,1,5,6)              0.0            estimate D2E/DX2                !
 ! D2    D(2,1,5,7)            180.0            estimate D2E/DX2                !
 ! D3    D(3,1,5,6)           -120.0            estimate D2E/DX2                !
 ! D4    D(3,1,5,7)             59.9999         estimate D2E/DX2                !
 ! D5    D(4,1,5,6)            119.9999         estimate D2E/DX2                !
 ! D6    D(4,1,5,7)            -60.0002         estimate D2E/DX2                !
 ! D7    D(1,5,7,8)              0.0002         estimate D2E/DX2                !
 ! D8    D(6,5,7,8)           -179.9999         estimate D2E/DX2                !
 --------------------------------------------------------------------------------
 Trust Radius=3.00D-01 FncErr=1.00D-07 GrdErr=1.00D-06
 Number of steps in this run=    100 maximum allowed number of steps=    100.
 GradGradGradGradGradGradGradGradGradGradGradGradGradGradGradGradGradGrad

                          Input orientation:                          
 ---------------------------------------------------------------------
 Center     Atomic      Atomic             Coordinates (Angstroms)
 Number     Number       Type             X           Y           Z
 ---------------------------------------------------------------------
      1          6           0        0.849180    1.025000    0.035010
      2          1           0        0.494100    1.789080   -0.624530
      3          1           0        0.491720    1.214460    1.025580
      4          1           0        0.491710    0.072730   -0.297120
      5          6           0        2.357760    1.023200    0.036560
      6          8           0        2.911380    1.884280   -0.706710
      7          8           0        2.907800    0.160810    0.780960
      8          1           0        2.380750   -0.425650    1.287180
 ---------------------------------------------------------------------
                    Distance matrix (angstroms):
                    1          2          3          4          5
     1  C    0.000000
     2  H    1.069997   0.000000
     3  H    1.070001   1.747300   0.000000
     4  H    1.070006   1.747301   1.747307   0.000000
     5  C    1.508582   2.120576   2.120577   2.120584   0.000000
     6  O    2.353971   2.420549   3.050286   3.050292   1.265071
     7  O    2.353972   3.233050   2.647161   2.647169   1.265066
     8  H    2.453166   3.481252   2.515319   2.515325   1.914091
                    6          7          8
     6  O    0.000000
     7  O    2.276735   0.000000
     8  H    3.097248   0.937004   0.000000
 Stoichiometry    C2H4O2
 Framework group  C1[X(C2H4O2)]
 Deg. of freedom    18
 Full point group                 C1      NOp   1
 Largest Abelian subgroup         C1      NOp   1
 Largest concise Abelian subgroup C1      NOp   1
                         Standard orientation:                         
 ---------------------------------------------------------------------
 Center     Atomic      Atomic             Coordinates (Angstroms)
 Number     Number       Type             X           Y           Z
 ---------------------------------------------------------------------
      1          6           0        1.316880   -0.178551   -0.000001
      2          1           0        1.848192    0.750212   -0.000001
      3          1           0        1.577602   -0.738604   -0.873653
      4          1           0        1.577611   -0.738604    0.873655
      5          6           0       -0.167387    0.091210    0.000000
      6          8           0       -0.506760    1.309910    0.000000
      7          8           0       -0.913885   -0.930129    0.000000
      8          1           0       -0.535213   -1.787207    0.000002
 ---------------------------------------------------------------------
 Rotational constants (GHZ):     10.5216040     10.3931180      5.4003958
 Standard basis: CC-pVDZ (5D, 7F)
 There are    80 symmetry adapted cartesian basis functions of A   symmetry.
 There are    76 symmetry adapted basis functions of A   symmetry.
    76 basis functions,   160 primitive gaussians,    80 cartesian basis functions
    16 alpha electrons       16 beta electrons
       nuclear repulsion energy       121.9867680794 Hartrees.
 NAtoms=    8 NActive=    8 NUniq=    8 SFac= 1.00D+00 NAtFMM=   60 NAOKFM=F Big=F
 Integral buffers will be    131072 words long.
 Raffenetti 2 integral format.
 Two-electron integral symmetry is turned on.
 One-electron integrals computed using PRISM.
 NBasis=    76 RedAO= T EigKep=  5.08D-03  NBF=    76
 NBsUse=    76 1.00D-06 EigRej= -1.00D+00 NBFU=    76
 ExpMin= 1.22D-01 ExpMax= 1.17D+04 ExpMxC= 4.01D+02 IAcc=1 IRadAn=         1 AccDes= 0.00D+00
 Harris functional with IExCor=  402 and IRadAn=       1 diagonalized for initial guess.
 HarFok:  IExCor=  402 AccDes= 0.00D+00 IRadAn=         1 IDoV= 1 UseB2=F ITyADJ=14
 ICtDFT=  3500011 ScaDFX=  1.000000  1.000000  1.000000  1.000000
 FoFCou: FMM=F IPFlag=           0 FMFlag=      100000 FMFlg1=           0
         NFxFlg=           0 DoJE=T BraDBF=F KetDBF=T FulRan=T
         wScrn=  0.000000 ICntrl=     500 IOpCl=  0 I1Cent=   200000004 NGrid=           0
         NMat0=    1 NMatS0=      1 NMatT0=    0 NMatD0=    1 NMtDS0=    0 NMtDT0=    0
 Petite list used in FoFCou.
 Keep R1 ints in memory in canonical form, NReq=5223337.
 Requested convergence on RMS density matrix=1.00D-08 within 128 cycles.
 Requested convergence on MAX density matrix=1.00D-06.
 Requested convergence on             energy=1.00D-06.
 No special actions if energy rises.
 Integral accuracy reduced to 1.0D-05 until final iterations.
 Initial convergence to 1.0D-05 achieved.  Increase integral accuracy.
 SCF Done:  E(RB3LYP) =  -229.069579844     A.U. after   14 cycles
            NFock= 14  Conv=0.26D-08     -V/T= 2.0052

 **********************************************************************

            Population analysis using the SCF density.

 **********************************************************************

 Orbital symmetries:
       Occupied  (A) (A) (A) (A) (A) (A) (A) (A) (A) (A) (A) (A)
                 (A) (A) (A) (A)
       Virtual   (A) (A) (A) (A) (A) (A) (A) (A) (A) (A) (A) (A)
                 (A) (A) (A) (A) (A) (A) (A) (A) (A) (A) (A) (A)
                 (A) (A) (A) (A) (A) (A) (A) (A) (A) (A) (A) (A)
                 (A) (A) (A) (A) (A) (A) (A) (A) (A) (A) (A) (A)
                 (A) (A) (A) (A) (A) (A) (A) (A) (A) (A) (A) (A)
 The electronic state is 1-A.
 Alpha  occ. eigenvalues --  -19.20815 -19.10994 -10.31951 -10.19205  -1.14180
 Alpha  occ. eigenvalues --   -0.99228  -0.75407  -0.67847  -0.51660  -0.48324
 Alpha  occ. eigenvalues --   -0.46198  -0.41041  -0.40901  -0.36532  -0.30442
 Alpha  occ. eigenvalues --   -0.25072
 Alpha virt. eigenvalues --    0.01353   0.02108   0.08994   0.12883   0.13180
 Alpha virt. eigenvalues --    0.21049   0.27224   0.35235   0.43617   0.45828
 Alpha virt. eigenvalues --    0.47859   0.51531   0.51555   0.56247   0.60598
 Alpha virt. eigenvalues --    0.63088   0.64611   0.67318   0.76279   0.88125
 Alpha virt. eigenvalues --    0.88754   0.91950   0.92340   1.05423   1.07461
 Alpha virt. eigenvalues --    1.10804   1.18328   1.18840   1.29023   1.34503
 Alpha virt. eigenvalues --    1.40381   1.41034   1.41804   1.55654   1.63917
 Alpha virt. eigenvalues --    1.64454   1.65509   1.70067   1.79008   1.85425
 Alpha virt. eigenvalues --    1.89134   1.97086   2.02405   2.17158   2.18988
 Alpha virt. eigenvalues --    2.20412   2.27838   2.46272   2.46821   2.52463
 Alpha virt. eigenvalues --    2.64967   2.69943   2.74013   2.99356   3.07381
 Alpha virt. eigenvalues --    3.16422   3.25507   3.40776   3.44591   3.78018
          Condensed to atoms (all electrons):
               1          2          3          4          5          6
     1  C    4.749025   0.365840   0.362097   0.362097   0.374442  -0.109266
     2  H    0.365840   0.615305  -0.017359  -0.017360  -0.004043   0.010585
     3  H    0.362097  -0.017359   0.660666  -0.028341  -0.011729   0.001859
     4  H    0.362097  -0.017360  -0.028341   0.660665  -0.011729   0.001859
     5  C    0.374442  -0.004043  -0.011729  -0.011729   4.416474   0.723147
     6  O   -0.109266   0.010585   0.001859   0.001859   0.723147   7.694124
     7  O   -0.096415   0.005319   0.002379   0.002379   0.444684  -0.039088
     8  H   -0.004943  -0.000451   0.001645   0.001645  -0.027683   0.003392
               7          8
     1  C   -0.096415  -0.004943
     2  H    0.005319  -0.000451
     3  H    0.002379   0.001645
     4  H    0.002379   0.001645
     5  C    0.444684  -0.027683
     6  O   -0.039088   0.003392
     7  O    7.373505   0.355869
     8  H    0.355869   0.528574
 Mulliken charges:
               1
     1  C   -0.002877
     2  H    0.042164
     3  H    0.028784
     4  H    0.028784
     5  C    0.096439
     6  O   -0.286613
     7  O   -0.048632
     8  H    0.141952
 Sum of Mulliken charges =   0.00000
 Mulliken charges with hydrogens summed into heavy atoms:
               1
     1  C    0.096855
     5  C    0.096439
     6  O   -0.286613
     7  O    0.093319
 Electronic spatial extent (au):  <R**2>=            249.1460
 Charge=              0.0000 electrons
 Dipole moment (field-independent basis, Debye):
    X=              1.9460    Y=             -4.0499    Z=              0.0000  Tot=              4.4932
 Quadrupole moment (field-independent basis, Debye-Ang):
   XX=            -24.7548   YY=            -22.2721   ZZ=            -22.6926
   XY=              1.7016   XZ=              0.0000   YZ=              0.0000
 Traceless Quadrupole moment (field-independent basis, Debye-Ang):
   XX=             -1.5149   YY=              0.9677   ZZ=              0.5472
   XY=              1.7016   XZ=              0.0000   YZ=              0.0000
 Octapole moment (field-independent basis, Debye-Ang**2):
  XXX=             -2.8803  YYY=            -15.9516  ZZZ=              0.0000  XYY=             -1.1846
  XXY=              0.4496  XXZ=              0.0000  XZZ=             -1.4447  YZZ=             -0.7385
  YYZ=              0.0000  XYZ=              0.0000
 Hexadecapole moment (field-independent basis, Debye-Ang**3):
 XXXX=           -152.0056 YYYY=           -104.6684 ZZZZ=            -25.7017 XXXY=              3.9256
 XXXZ=              0.0000 YYYX=             10.4322 YYYZ=              0.0000 ZZZX=              0.0000
 ZZZY=              0.0000 XXYY=            -44.6955 XXZZ=            -28.5172 YYZZ=            -23.8347
 XXYZ=              0.0000 YYXZ=              0.0000 ZZXY=             -0.1234
 N-N= 1.219867680794D+02 E-N=-7.816153792090D+02  KE= 2.278901104292D+02
 Calling FoFJK, ICntrl=      2127 FMM=F ISym2X=0 I1Cent= 0 IOpClX= 0 NMat=1 NMatS=1 NMatT=0.
 ***** Axes restored to original set *****
 -------------------------------------------------------------------
 Center     Atomic                   Forces (Hartrees/Bohr)
 Number     Number              X              Y              Z
 -------------------------------------------------------------------
      1        6           0.013453615   -0.000588666    0.000503741
      2        1          -0.005485591    0.012696317   -0.010958952
      3        1          -0.010980748    0.002142591    0.021790717
      4        1          -0.010979029   -0.021240495   -0.005301305
      5        6          -0.041880060    0.103485982   -0.089327629
      6        8          -0.003466154   -0.058143565    0.050188542
      7        8           0.088035630   -0.024497286    0.021145648
      8        1          -0.028697663   -0.013854877    0.011959238
 -------------------------------------------------------------------
 Cartesian Forces:  Max     0.103485982 RMS     0.039792769

 GradGradGradGradGradGradGradGradGradGradGradGradGradGradGradGradGradGrad
 Berny optimization.
 FormGI is forming the generalized inverse of G from B-inverse, IUseBI=4.
 Internal  Forces:  Max     0.071427058 RMS     0.025426326
 Search for a local minimum.
 Step number   1 out of a maximum of  100
 All quantities printed in internal units (Hartrees-Bohrs-Radians)
 Mixed Optimization -- RFO/linear search
 Second derivative matrix not updated -- first step.
 ITU=  0
     Eigenvalues ---    0.00652   0.01513   0.03477   0.07474   0.07474
     Eigenvalues ---    0.16000   0.16000   0.16000   0.16000   0.25000
     Eigenvalues ---    0.25000   0.31493   0.37229   0.37230   0.37231
     Eigenvalues ---    0.60729   0.77908   0.77910
 RFO step:  Lambda=-3.14041023D-02 EMin= 6.52425749D-03
 Linear search not attempted -- first point.
 Iteration  1 RMS(Cart)=  0.06291154 RMS(Int)=  0.00270882
 Iteration  2 RMS(Cart)=  0.00322412 RMS(Int)=  0.00003296
 Iteration  3 RMS(Cart)=  0.00000479 RMS(Int)=  0.00003272
 Iteration  4 RMS(Cart)=  0.00000000 RMS(Int)=  0.00003272
 Variable       Old X    -DE/DX   Delta X   Delta X   Delta X     New X
                                 (Linear)    (Quad)   (Total)
    R1        2.02200   0.01764   0.00000   0.04371   0.04371   2.06571
    R2        2.02201   0.02422   0.00000   0.05999   0.05999   2.08200
    R3        2.02202   0.02421   0.00000   0.05998   0.05998   2.08200
    R4        2.85081   0.01397   0.00000   0.04035   0.04035   2.89115
    R5        2.39064  -0.07058   0.00000  -0.08709  -0.08709   2.30355
    R6        2.39063   0.07143   0.00000   0.08813   0.08813   2.47876
    R7        1.77068   0.03128   0.00000   0.04898   0.04898   1.81966
    A1        1.91063  -0.00072   0.00000  -0.00264  -0.00263   1.90800
    A2        1.91063  -0.00072   0.00000  -0.00264  -0.00263   1.90800
    A3        1.91064  -0.00153   0.00000  -0.00684  -0.00683   1.90381
    A4        1.91063  -0.00434   0.00000  -0.02499  -0.02510   1.88553
    A5        1.91063   0.00366   0.00000   0.01855   0.01850   1.92914
    A6        1.91064   0.00366   0.00000   0.01855   0.01850   1.92914
    A7        2.02217   0.03153   0.00000   0.11204   0.11204   2.13421
    A8        2.02218   0.00987   0.00000   0.03506   0.03506   2.05724
    A9        2.23884  -0.04139   0.00000  -0.14710  -0.14710   2.09174
   A10        2.09440  -0.02379   0.00000  -0.12430  -0.12430   1.97010
    D1        0.00000   0.00000   0.00000   0.00000   0.00000   0.00000
    D2        3.14159   0.00000   0.00000   0.00000   0.00000   3.14159
    D3       -2.09440  -0.00042   0.00000  -0.00394  -0.00390  -2.09829
    D4        1.04720  -0.00042   0.00000  -0.00394  -0.00390   1.04330
    D5        2.09439   0.00042   0.00000   0.00394   0.00390   2.09829
    D6       -1.04720   0.00042   0.00000   0.00394   0.00390  -1.04330
    D7        0.00000   0.00000   0.00000   0.00000   0.00000   0.00000
    D8       -3.14159   0.00000   0.00000   0.00000   0.00000  -3.14159
         Item               Value     Threshold  Converged?
 Maximum Force            0.071427     0.000015     NO 
 RMS     Force            0.025426     0.000010     NO 
 Maximum Displacement     0.148921     0.000060     NO 
 RMS     Displacement     0.062938     0.000040     NO 
 Predicted change in Energy=-1.697053D-02
 GradGradGradGradGradGradGradGradGradGradGradGradGradGradGradGradGradGrad

                          Input orientation:                          
 ---------------------------------------------------------------------
 Center     Atomic      Atomic             Coordinates (Angstroms)
 Number     Number       Type             X           Y           Z
 ---------------------------------------------------------------------
      1          6           0        0.824656    1.027254    0.033064
      2          1           0        0.452124    1.805207   -0.638451
      3          1           0        0.445954    1.212369    1.050986
      4          1           0        0.445950    0.047294   -0.298761
      5          6           0        2.354421    1.044333    0.018318
      6          8           0        2.990186    1.831653   -0.661284
      7          8           0        2.984651    0.173504    0.770001
      8          1           0        2.386458   -0.397704    1.263057
 ---------------------------------------------------------------------
                    Distance matrix (angstroms):
                    1          2          3          4          5
     1  C    0.000000
     2  H    1.093125   0.000000
     3  H    1.101747   1.790444   0.000000
     4  H    1.101748   1.790443   1.783036   0.000000
     5  C    1.529932   2.151513   2.176439   2.176440   0.000000
     6  O    2.412197   2.538302   3.128657   3.128657   1.218986
     7  O    2.436708   3.325640   2.757385   2.757388   1.311701
     8  H    2.445938   3.494309   2.530388   2.530390   1.905221
                    6          7          8
     6  O    0.000000
     7  O    2.190448   0.000000
     8  H    3.006260   0.962921   0.000000
 Stoichiometry    C2H4O2
 Framework group  C1[X(C2H4O2)]
 Deg. of freedom    18
 Full point group                 C1      NOp   1
 Largest Abelian subgroup         C1      NOp   1
 Largest concise Abelian subgroup C1      NOp   1
                         Standard orientation:                         
 ---------------------------------------------------------------------
 Center     Atomic      Atomic             Coordinates (Angstroms)
 Number     Number       Type             X           Y           Z
 ---------------------------------------------------------------------
      1          6           0        1.382165   -0.062142    0.000000
      2          1           0        1.852174    0.924779    0.000000
      3          1           0        1.708413   -0.621254   -0.891517
      4          1           0        1.708415   -0.621252    0.891518
      5          6           0       -0.138276    0.108006    0.000000
      6          8           0       -0.670658    1.204590    0.000000
      7          8           0       -0.876624   -0.976153    0.000000
      8          1           0       -0.354075   -1.784954    0.000002
 ---------------------------------------------------------------------
 Rotational constants (GHZ):     11.2264422      9.4792776      5.3126860
 Standard basis: CC-pVDZ (5D, 7F)
 There are    80 symmetry adapted cartesian basis functions of A   symmetry.
 There are    76 symmetry adapted basis functions of A   symmetry.
    76 basis functions,   160 primitive gaussians,    80 cartesian basis functions
    16 alpha electrons       16 beta electrons
       nuclear repulsion energy       121.0753457795 Hartrees.
 NAtoms=    8 NActive=    8 NUniq=    8 SFac= 1.00D+00 NAtFMM=   60 NAOKFM=F Big=F
 Integral buffers will be    131072 words long.
 Raffenetti 2 integral format.
 Two-electron integral symmetry is turned on.
 One-electron integrals computed using PRISM.
 NBasis=    76 RedAO= T EigKep=  5.20D-03  NBF=    76
 NBsUse=    76 1.00D-06 EigRej= -1.00D+00 NBFU=    76
 Initial guess from the checkpoint file:  "hoac.chk"
 B after Tr=     0.000000    0.000000    0.000000
         Rot=    0.998968    0.000000    0.000000   -0.045418 Ang=   5.21 deg.
 ExpMin= 1.22D-01 ExpMax= 1.17D+04 ExpMxC= 4.01D+02 IAcc=1 IRadAn=         1 AccDes= 0.00D+00
 Harris functional with IExCor=  402 and IRadAn=       1 diagonalized for initial guess.
 HarFok:  IExCor=  402 AccDes= 0.00D+00 IRadAn=         1 IDoV= 1 UseB2=F ITyADJ=14
 ICtDFT=  3500011 ScaDFX=  1.000000  1.000000  1.000000  1.000000
 FoFCou: FMM=F IPFlag=           0 FMFlag=      100000 FMFlg1=           0
         NFxFlg=           0 DoJE=T BraDBF=F KetDBF=T FulRan=T
         wScrn=  0.000000 ICntrl=     500 IOpCl=  0 I1Cent=   200000004 NGrid=           0
         NMat0=    1 NMatS0=      1 NMatT0=    0 NMatD0=    1 NMtDS0=    0 NMtDT0=    0
 Petite list used in FoFCou.
 Keep R1 ints in memory in canonical form, NReq=5223337.
 Requested convergence on RMS density matrix=1.00D-08 within 128 cycles.
 Requested convergence on MAX density matrix=1.00D-06.
 Requested convergence on             energy=1.00D-06.
 No special actions if energy rises.
 Integral accuracy reduced to 1.0D-05 until final iterations.
 Initial convergence to 1.0D-05 achieved.  Increase integral accuracy.
 SCF Done:  E(RB3LYP) =  -229.088300177     A.U. after   13 cycles
            NFock= 13  Conv=0.14D-08     -V/T= 2.0059
 Calling FoFJK, ICntrl=      2127 FMM=F ISym2X=0 I1Cent= 0 IOpClX= 0 NMat=1 NMatS=1 NMatT=0.
 ***** Axes restored to original set *****
 -------------------------------------------------------------------
 Center     Atomic                   Forces (Hartrees/Bohr)
 Number     Number              X              Y              Z
 -------------------------------------------------------------------
      1        6           0.006621025   -0.003563782    0.003075580
      2        1           0.000005599    0.001297569   -0.001119860
      3        1          -0.000694312   -0.000310807    0.000949398
      4        1          -0.000694094   -0.000984411    0.000169003
      5        6          -0.013130791    0.040566470   -0.035016137
      6        8          -0.008325032   -0.011830441    0.010211804
      7        8           0.022792879   -0.022668606    0.019567051
      8        1          -0.006575274   -0.002505992    0.002163161
 -------------------------------------------------------------------
 Cartesian Forces:  Max     0.040566470 RMS     0.014288794

 GradGradGradGradGradGradGradGradGradGradGradGradGradGradGradGradGradGrad
 Berny optimization.
 Using GEDIIS/GDIIS optimizer.
 FormGI is forming the generalized inverse of G from B-inverse, IUseBI=4.
 Internal  Forces:  Max     0.036959145 RMS     0.008660880
 Search for a local minimum.
 Step number   2 out of a maximum of  100
 All quantities printed in internal units (Hartrees-Bohrs-Radians)
 Mixed Optimization -- RFO/linear search
 Update second derivatives using D2CorX and points    1    2
 DE= -1.87D-02 DEPred=-1.70D-02 R= 1.10D+00
 TightC=F SS=  1.41D+00  RLast= 2.84D-01 DXNew= 5.0454D-01 8.5272D-01
 Trust test= 1.10D+00 RLast= 2.84D-01 DXMaxT set to 5.05D-01
 ITU=  1  0
 Use linear search instead of GDIIS.
     Eigenvalues ---    0.00652   0.01332   0.03477   0.07306   0.07413
     Eigenvalues ---    0.15671   0.16000   0.16000   0.16019   0.24053
     Eigenvalues ---    0.28034   0.32663   0.37207   0.37230   0.38324
     Eigenvalues ---    0.56501   0.64614   0.79401
 RFO step:  Lambda=-2.67058527D-03 EMin= 6.52425749D-03
 Quartic linear search produced a step of  0.21734.
 Iteration  1 RMS(Cart)=  0.02565680 RMS(Int)=  0.00066910
 Iteration  2 RMS(Cart)=  0.00067235 RMS(Int)=  0.00000950
 Iteration  3 RMS(Cart)=  0.00000053 RMS(Int)=  0.00000950
 Variable       Old X    -DE/DX   Delta X   Delta X   Delta X     New X
                                 (Linear)    (Quad)   (Total)
    R1        2.06571   0.00161   0.00950  -0.00130   0.00820   2.07391
    R2        2.08200   0.00106   0.01304  -0.00551   0.00753   2.08953
    R3        2.08200   0.00106   0.01304  -0.00551   0.00753   2.08953
    R4        2.89115  -0.00517   0.00877  -0.02602  -0.01725   2.87390
    R5        2.30355  -0.01768  -0.01893  -0.01562  -0.03454   2.26901
    R6        2.47876   0.03696   0.01915   0.04550   0.06465   2.54341
    R7        1.81966   0.00668   0.01064   0.00648   0.01712   1.83678
    A1        1.90800   0.00028  -0.00057   0.00280   0.00224   1.91024
    A2        1.90800   0.00028  -0.00057   0.00280   0.00224   1.91024
    A3        1.90381  -0.00094  -0.00148  -0.00553  -0.00700   1.89681
    A4        1.88553  -0.00067  -0.00546  -0.00100  -0.00649   1.87904
    A5        1.92914   0.00054   0.00402   0.00054   0.00455   1.93368
    A6        1.92914   0.00053   0.00402   0.00054   0.00455   1.93368
    A7        2.13421   0.00495   0.02435   0.00580   0.03015   2.16436
    A8        2.05724  -0.00747   0.00762  -0.04166  -0.03404   2.02320
    A9        2.09174   0.00253  -0.03197   0.03586   0.00389   2.09563
   A10        1.97010  -0.00564  -0.02702  -0.01970  -0.04671   1.92338
    D1        0.00000   0.00000   0.00000   0.00000   0.00000   0.00000
    D2        3.14159   0.00000   0.00000   0.00000   0.00000  -3.14159
    D3       -2.09829  -0.00008  -0.00085  -0.00028  -0.00111  -2.09940
    D4        1.04330  -0.00008  -0.00085  -0.00028  -0.00111   1.04219
    D5        2.09829   0.00008   0.00085   0.00028   0.00111   2.09940
    D6       -1.04330   0.00008   0.00085   0.00028   0.00111  -1.04219
    D7        0.00000   0.00000   0.00000   0.00000   0.00000   0.00000
    D8       -3.14159   0.00000   0.00000   0.00000   0.00000  -3.14159
         Item               Value     Threshold  Converged?
 Maximum Force            0.036959     0.000015     NO 
 RMS     Force            0.008661     0.000010     NO 
 Maximum Displacement     0.090525     0.000060     NO 
 RMS     Displacement     0.025948     0.000040     NO 
 Predicted change in Energy=-1.995335D-03
 GradGradGradGradGradGradGradGradGradGradGradGradGradGradGradGradGradGrad

                          Input orientation:                          
 ---------------------------------------------------------------------
 Center     Atomic      Atomic             Coordinates (Angstroms)
 Number     Number       Type             X           Y           Z
 ---------------------------------------------------------------------
      1          6           0        0.836461    1.023879    0.035977
      2          1           0        0.448456    1.800998   -0.634817
      3          1           0        0.462626    1.202240    1.061198
      4          1           0        0.462624    0.035711   -0.290232
      5          6           0        2.356316    1.064567    0.000853
      6          8           0        2.992295    1.835520   -0.664623
      7          8           0        2.987068    0.164530    0.777747
      8          1           0        2.338555   -0.383534    1.250826
 ---------------------------------------------------------------------
                    Distance matrix (angstroms):
                    1          2          3          4          5
     1  C    0.000000
     2  H    1.097465   0.000000
     3  H    1.105732   1.798661   0.000000
     4  H    1.105732   1.798660   1.785260   0.000000
     5  C    1.520805   2.141574   2.174706   2.174705   0.000000
     6  O    2.407742   2.544248   3.127096   3.127095   1.200707
     7  O    2.431833   3.334355   2.744083   2.744083   1.345912
     8  H    2.390179   3.449682   2.463686   2.463685   1.913046
                    6          7          8
     6  O    0.000000
     7  O    2.207412   0.000000
     8  H    3.003419   0.971981   0.000000
 Stoichiometry    C2H4O2
 Framework group  C1[X(C2H4O2)]
 Deg. of freedom    18
 Full point group                 C1      NOp   1
 Largest Abelian subgroup         C1      NOp   1
 Largest concise Abelian subgroup C1      NOp   1
                         Standard orientation:                         
 ---------------------------------------------------------------------
 Center     Atomic      Atomic             Coordinates (Angstroms)
 Number     Number       Type             X           Y           Z
 ---------------------------------------------------------------------
      1          6           0        1.373844   -0.044893    0.000000
      2          1           0        1.842709    0.947374    0.000000
      3          1           0        1.703705   -0.607963   -0.892629
      4          1           0        1.703704   -0.607961    0.892630
      5          6           0       -0.136843    0.130238   -0.000001
      6          8           0       -0.689335    1.196283    0.000000
      7          8           0       -0.860664   -1.004471    0.000000
      8          1           0       -0.272131   -1.778018    0.000002
 ---------------------------------------------------------------------
 Rotational constants (GHZ):     11.0757733      9.5587100      5.3036901
 Standard basis: CC-pVDZ (5D, 7F)
 There are    80 symmetry adapted cartesian basis functions of A   symmetry.
 There are    76 symmetry adapted basis functions of A   symmetry.
    76 basis functions,   160 primitive gaussians,    80 cartesian basis functions
    16 alpha electrons       16 beta electrons
       nuclear repulsion energy       120.8765927019 Hartrees.
 NAtoms=    8 NActive=    8 NUniq=    8 SFac= 1.00D+00 NAtFMM=   60 NAOKFM=F Big=F
 Integral buffers will be    131072 words long.
 Raffenetti 2 integral format.
 Two-electron integral symmetry is turned on.
 One-electron integrals computed using PRISM.
 NBasis=    76 RedAO= T EigKep=  5.09D-03  NBF=    76
 NBsUse=    76 1.00D-06 EigRej= -1.00D+00 NBFU=    76
 Initial guess from the checkpoint file:  "hoac.chk"
 B after Tr=     0.000000    0.000000    0.000000
         Rot=    0.999966    0.000000    0.000000   -0.008225 Ang=  -0.94 deg.
 ExpMin= 1.22D-01 ExpMax= 1.17D+04 ExpMxC= 4.01D+02 IAcc=1 IRadAn=         1 AccDes= 0.00D+00
 Harris functional with IExCor=  402 and IRadAn=       1 diagonalized for initial guess.
 HarFok:  IExCor=  402 AccDes= 0.00D+00 IRadAn=         1 IDoV= 1 UseB2=F ITyADJ=14
 ICtDFT=  3500011 ScaDFX=  1.000000  1.000000  1.000000  1.000000
 FoFCou: FMM=F IPFlag=           0 FMFlag=      100000 FMFlg1=           0
         NFxFlg=           0 DoJE=T BraDBF=F KetDBF=T FulRan=T
         wScrn=  0.000000 ICntrl=     500 IOpCl=  0 I1Cent=   200000004 NGrid=           0
         NMat0=    1 NMatS0=      1 NMatT0=    0 NMatD0=    1 NMtDS0=    0 NMtDT0=    0
 Petite list used in FoFCou.
 Keep R1 ints in memory in canonical form, NReq=5223337.
 Requested convergence on RMS density matrix=1.00D-08 within 128 cycles.
 Requested convergence on MAX density matrix=1.00D-06.
 Requested convergence on             energy=1.00D-06.
 No special actions if energy rises.
 Integral accuracy reduced to 1.0D-05 until final iterations.
 Initial convergence to 1.0D-05 achieved.  Increase integral accuracy.
 SCF Done:  E(RB3LYP) =  -229.090587343     A.U. after   12 cycles
            NFock= 12  Conv=0.94D-08     -V/T= 2.0060
 Calling FoFJK, ICntrl=      2127 FMM=F ISym2X=0 I1Cent= 0 IOpClX= 0 NMat=1 NMatS=1 NMatT=0.
 ***** Axes restored to original set *****
 -------------------------------------------------------------------
 Center     Atomic                   Forces (Hartrees/Bohr)
 Number     Number              X              Y              Z
 -------------------------------------------------------------------
      1        6          -0.000330286   -0.000926226    0.000799766
      2        1          -0.000531305   -0.000816110    0.000704486
      3        1           0.000638172   -0.000122031   -0.001561763
      4        1           0.000638148    0.001527008    0.000348825
      5        6          -0.009315190    0.006152381   -0.005310990
      6        8           0.003284165    0.003114016   -0.002687806
      7        8           0.004290402   -0.010190578    0.008796363
      8        1           0.001325894    0.001261541   -0.001088881
 -------------------------------------------------------------------
 Cartesian Forces:  Max     0.010190578 RMS     0.004049064

 GradGradGradGradGradGradGradGradGradGradGradGradGradGradGradGradGradGrad
 Berny optimization.
 Using GEDIIS/GDIIS optimizer.
 FormGI is forming the generalized inverse of G from B-inverse, IUseBI=4.
 Internal  Forces:  Max     0.013053668 RMS     0.002939501
 Search for a local minimum.
 Step number   3 out of a maximum of  100
 All quantities printed in internal units (Hartrees-Bohrs-Radians)
 Mixed Optimization -- RFO/linear search
 Update second derivatives using D2CorX and points    1    2    3
 DE= -2.29D-03 DEPred=-2.00D-03 R= 1.15D+00
 TightC=F SS=  1.41D+00  RLast= 1.03D-01 DXNew= 8.4853D-01 3.0823D-01
 Trust test= 1.15D+00 RLast= 1.03D-01 DXMaxT set to 5.05D-01
 ITU=  1  1  0
 Use linear search instead of GDIIS.
     Eigenvalues ---    0.00652   0.01314   0.03477   0.07267   0.07431
     Eigenvalues ---    0.15383   0.16000   0.16010   0.16346   0.22600
     Eigenvalues ---    0.28014   0.32854   0.37188   0.37230   0.39277
     Eigenvalues ---    0.48904   0.62107   0.85986
 RFO step:  Lambda=-3.00555883D-04 EMin= 6.52425749D-03
 Quartic linear search produced a step of  0.22879.
 Iteration  1 RMS(Cart)=  0.00962811 RMS(Int)=  0.00006914
 Iteration  2 RMS(Cart)=  0.00006445 RMS(Int)=  0.00000190
 Iteration  3 RMS(Cart)=  0.00000000 RMS(Int)=  0.00000190
 Variable       Old X    -DE/DX   Delta X   Delta X   Delta X     New X
                                 (Linear)    (Quad)   (Total)
    R1        2.07391  -0.00082   0.00188  -0.00253  -0.00066   2.07325
    R2        2.08953  -0.00168   0.00172  -0.00481  -0.00308   2.08645
    R3        2.08953  -0.00168   0.00172  -0.00481  -0.00308   2.08645
    R4        2.87390  -0.00040  -0.00395   0.00179  -0.00215   2.87175
    R5        2.26901   0.00523  -0.00790   0.01031   0.00240   2.27141
    R6        2.54341   0.01305   0.01479   0.01402   0.02882   2.57222
    R7        1.83678  -0.00212   0.00392  -0.00514  -0.00122   1.83556
    A1        1.91024  -0.00046   0.00051  -0.00319  -0.00267   1.90757
    A2        1.91024  -0.00046   0.00051  -0.00319  -0.00267   1.90757
    A3        1.89681   0.00134  -0.00160   0.01141   0.00981   1.90662
    A4        1.87904   0.00015  -0.00148   0.00016  -0.00133   1.87771
    A5        1.93368  -0.00031   0.00104  -0.00273  -0.00169   1.93199
    A6        1.93368  -0.00031   0.00104  -0.00273  -0.00169   1.93199
    A7        2.16436   0.00149   0.00690   0.00633   0.01323   2.17759
    A8        2.02320  -0.00159  -0.00779  -0.00245  -0.01024   2.01296
    A9        2.09563   0.00010   0.00089  -0.00388  -0.00299   2.09263
   A10        1.92338  -0.00023  -0.01069   0.00080  -0.00988   1.91350
    D1        0.00000   0.00000   0.00000   0.00000   0.00000   0.00000
    D2       -3.14159   0.00000   0.00000  -0.00001   0.00000   3.14159
    D3       -2.09940  -0.00010  -0.00025  -0.00167  -0.00192  -2.10133
    D4        1.04219  -0.00010  -0.00025  -0.00168  -0.00193   1.04026
    D5        2.09940   0.00010   0.00025   0.00168   0.00193   2.10133
    D6       -1.04219   0.00010   0.00025   0.00167   0.00192  -1.04027
    D7        0.00000   0.00000   0.00000   0.00000   0.00000   0.00000
    D8       -3.14159   0.00000   0.00000  -0.00001  -0.00001   3.14159
         Item               Value     Threshold  Converged?
 Maximum Force            0.013054     0.000015     NO 
 RMS     Force            0.002940     0.000010     NO 
 Maximum Displacement     0.025015     0.000060     NO 
 RMS     Displacement     0.009634     0.000040     NO 
 Predicted change in Energy=-2.236161D-04
 GradGradGradGradGradGradGradGradGradGradGradGradGradGradGradGradGradGrad

                          Input orientation:                          
 ---------------------------------------------------------------------
 Center     Atomic      Atomic             Coordinates (Angstroms)
 Number     Number       Type             X           Y           Z
 ---------------------------------------------------------------------
      1          6           0        0.837850    1.025010    0.035001
      2          1           0        0.435218    1.797573   -0.631859
      3          1           0        0.468857    1.200031    1.060792
      4          1           0        0.468853    0.035790   -0.287989
      5          6           0        2.356302    1.070955   -0.004665
      6          8           0        3.001730    1.838540   -0.667228
      7          8           0        2.987412    0.158015    0.783371
      8          1           0        2.328177   -0.382003    1.249506
 ---------------------------------------------------------------------
                    Distance matrix (angstroms):
                    1          2          3          4          5
     1  C    0.000000
     2  H    1.097118   0.000000
     3  H    1.104100   1.795342   0.000000
     4  H    1.104100   1.795342   1.781759   0.000000
     5  C    1.519665   2.147535   2.171246   2.171245   0.000000
     6  O    2.416057   2.567082   3.131963   3.131963   1.201979
     7  O    2.435642   3.347345   2.739685   2.739688   1.361161
     8  H    2.382390   3.445777   2.448574   2.448577   1.919589
                    6          7          8
     6  O    0.000000
     7  O    2.220047   0.000000
     8  H    3.009710   0.971335   0.000000
 Stoichiometry    C2H4O2
 Framework group  C1[X(C2H4O2)]
 Deg. of freedom    18
 Full point group                 C1      NOp   1
 Largest Abelian subgroup         C1      NOp   1
 Largest concise Abelian subgroup C1      NOp   1
                         Standard orientation:                         
 ---------------------------------------------------------------------
 Center     Atomic      Atomic             Coordinates (Angstroms)
 Number     Number       Type             X           Y           Z
 ---------------------------------------------------------------------
      1          6           0        1.375215   -0.031970    0.000000
      2          1           0        1.849526    0.957321   -0.000003
      3          1           0        1.704961   -0.594676   -0.890879
      4          1           0        1.704963   -0.594673    0.890880
      5          6           0       -0.135056    0.136744    0.000002
      6          8           0       -0.706609    1.194137   -0.000001
      7          8           0       -0.850474   -1.021243    0.000000
      8          1           0       -0.243733   -1.779766    0.000000
 ---------------------------------------------------------------------
 Rotational constants (GHZ):     10.9653472      9.5311299      5.2691250
 Standard basis: CC-pVDZ (5D, 7F)
 There are    80 symmetry adapted cartesian basis functions of A   symmetry.
 There are    76 symmetry adapted basis functions of A   symmetry.
    76 basis functions,   160 primitive gaussians,    80 cartesian basis functions
    16 alpha electrons       16 beta electrons
       nuclear repulsion energy       120.5063261426 Hartrees.
 NAtoms=    8 NActive=    8 NUniq=    8 SFac= 1.00D+00 NAtFMM=   60 NAOKFM=F Big=F
 Integral buffers will be    131072 words long.
 Raffenetti 2 integral format.
 Two-electron integral symmetry is turned on.
 One-electron integrals computed using PRISM.
 NBasis=    76 RedAO= T EigKep=  5.11D-03  NBF=    76
 NBsUse=    76 1.00D-06 EigRej= -1.00D+00 NBFU=    76
 Initial guess from the checkpoint file:  "hoac.chk"
 B after Tr=     0.000000    0.000000    0.000000
         Rot=    0.999986    0.000000    0.000000   -0.005309 Ang=   0.61 deg.
 ExpMin= 1.22D-01 ExpMax= 1.17D+04 ExpMxC= 4.01D+02 IAcc=1 IRadAn=         1 AccDes= 0.00D+00
 Harris functional with IExCor=  402 and IRadAn=       1 diagonalized for initial guess.
 HarFok:  IExCor=  402 AccDes= 0.00D+00 IRadAn=         1 IDoV= 1 UseB2=F ITyADJ=14
 ICtDFT=  3500011 ScaDFX=  1.000000  1.000000  1.000000  1.000000
 FoFCou: FMM=F IPFlag=           0 FMFlag=      100000 FMFlg1=           0
         NFxFlg=           0 DoJE=T BraDBF=F KetDBF=T FulRan=T
         wScrn=  0.000000 ICntrl=     500 IOpCl=  0 I1Cent=   200000004 NGrid=           0
         NMat0=    1 NMatS0=      1 NMatT0=    0 NMatD0=    1 NMtDS0=    0 NMtDT0=    0
 Petite list used in FoFCou.
 Keep R1 ints in memory in canonical form, NReq=5223337.
 Requested convergence on RMS density matrix=1.00D-08 within 128 cycles.
 Requested convergence on MAX density matrix=1.00D-06.
 Requested convergence on             energy=1.00D-06.
 No special actions if energy rises.
 Integral accuracy reduced to 1.0D-05 until final iterations.
 Initial convergence to 1.0D-05 achieved.  Increase integral accuracy.
 SCF Done:  E(RB3LYP) =  -229.090849924     A.U. after   11 cycles
            NFock= 11  Conv=0.61D-08     -V/T= 2.0062
 Calling FoFJK, ICntrl=      2127 FMM=F ISym2X=0 I1Cent= 0 IOpClX= 0 NMat=1 NMatS=1 NMatT=0.
 ***** Axes restored to original set *****
 -------------------------------------------------------------------
 Center     Atomic                   Forces (Hartrees/Bohr)
 Number     Number              X              Y              Z
 -------------------------------------------------------------------
      1        6          -0.000001863   -0.000095854    0.000082498
      2        1           0.000005944   -0.000380198    0.000328138
      3        1           0.000449742    0.000071984   -0.000590160
      4        1           0.000449546    0.000594220    0.000014952
      5        6          -0.001865086    0.001242411   -0.001071176
      6        8           0.000088440    0.000176853   -0.000153110
      7        8          -0.000297043   -0.002284616    0.001971723
      8        1           0.001170320    0.000675200   -0.000582864
 -------------------------------------------------------------------
 Cartesian Forces:  Max     0.002284616 RMS     0.000889105

 GradGradGradGradGradGradGradGradGradGradGradGradGradGradGradGradGradGrad
 Berny optimization.
 Using GEDIIS/GDIIS optimizer.
 FormGI is forming the generalized inverse of G from B-inverse, IUseBI=4.
 Internal  Forces:  Max     0.002290391 RMS     0.000634725
 Search for a local minimum.
 Step number   4 out of a maximum of  100
 All quantities printed in internal units (Hartrees-Bohrs-Radians)
 Mixed Optimization -- En-DIIS/RFO-DIIS
 Update second derivatives using D2CorX and points    1    2    3    4
 DE= -2.63D-04 DEPred=-2.24D-04 R= 1.17D+00
 TightC=F SS=  1.41D+00  RLast= 3.72D-02 DXNew= 8.4853D-01 1.1149D-01
 Trust test= 1.17D+00 RLast= 3.72D-02 DXMaxT set to 5.05D-01
 ITU=  1  1  1  0
 Use linear search instead of GDIIS.
     Eigenvalues ---    0.00652   0.01303   0.03477   0.07286   0.07370
     Eigenvalues ---    0.14989   0.16000   0.16105   0.16368   0.21582
     Eigenvalues ---    0.27861   0.33136   0.37192   0.37230   0.38491
     Eigenvalues ---    0.43779   0.61027   0.83009
 RFO step:  Lambda=-1.33643338D-05 EMin= 6.52425749D-03
 Quartic linear search produced a step of  0.20626.
 Iteration  1 RMS(Cart)=  0.00256143 RMS(Int)=  0.00000361
 Iteration  2 RMS(Cart)=  0.00000346 RMS(Int)=  0.00000116
 Iteration  3 RMS(Cart)=  0.00000000 RMS(Int)=  0.00000116
 Variable       Old X    -DE/DX   Delta X   Delta X   Delta X     New X
                                 (Linear)    (Quad)   (Total)
    R1        2.07325  -0.00047  -0.00014  -0.00099  -0.00113   2.07212
    R2        2.08645  -0.00069  -0.00064  -0.00125  -0.00189   2.08456
    R3        2.08645  -0.00069  -0.00064  -0.00125  -0.00189   2.08456
    R4        2.87175  -0.00092  -0.00044  -0.00313  -0.00358   2.86817
    R5        2.27141   0.00024   0.00050  -0.00102  -0.00053   2.27088
    R6        2.57222   0.00229   0.00594   0.00067   0.00661   2.57883
    R7        1.83556  -0.00144  -0.00025  -0.00211  -0.00236   1.83320
    A1        1.90757  -0.00002  -0.00055   0.00019  -0.00036   1.90721
    A2        1.90757  -0.00002  -0.00055   0.00019  -0.00036   1.90721
    A3        1.90662   0.00034   0.00202   0.00108   0.00311   1.90972
    A4        1.87771   0.00035  -0.00027   0.00258   0.00230   1.88001
    A5        1.93199  -0.00033  -0.00035  -0.00200  -0.00235   1.92964
    A6        1.93199  -0.00033  -0.00035  -0.00200  -0.00235   1.92964
    A7        2.17759  -0.00003   0.00273  -0.00078   0.00195   2.17954
    A8        2.01296  -0.00004  -0.00211   0.00100  -0.00111   2.01185
    A9        2.09263   0.00007  -0.00062  -0.00022  -0.00084   2.09179
   A10        1.91350   0.00046  -0.00204   0.00313   0.00109   1.91459
    D1        0.00000   0.00000   0.00000  -0.00001  -0.00001  -0.00001
    D2        3.14159   0.00000   0.00000   0.00002   0.00001  -3.14158
    D3       -2.10133   0.00001  -0.00040   0.00031  -0.00009  -2.10141
    D4        1.04026   0.00001  -0.00040   0.00034  -0.00006   1.04020
    D5        2.10133  -0.00001   0.00040  -0.00033   0.00006   2.10139
    D6       -1.04027  -0.00001   0.00040  -0.00030   0.00009  -1.04018
    D7        0.00000   0.00000   0.00000  -0.00001  -0.00001  -0.00001
    D8        3.14159   0.00000   0.00000   0.00001   0.00001  -3.14158
         Item               Value     Threshold  Converged?
 Maximum Force            0.002290     0.000015     NO 
 RMS     Force            0.000635     0.000010     NO 
 Maximum Displacement     0.005817     0.000060     NO 
 RMS     Displacement     0.002562     0.000040     NO 
 Predicted change in Energy=-1.379513D-05
 GradGradGradGradGradGradGradGradGradGradGradGradGradGradGradGradGradGrad

                          Input orientation:                          
 ---------------------------------------------------------------------
 Center     Atomic      Atomic             Coordinates (Angstroms)
 Number     Number       Type             X           Y           Z
 ---------------------------------------------------------------------
      1          6           0        0.838004    1.025818    0.034305
      2          1           0        0.432153    1.796925   -0.631304
      3          1           0        0.471929    1.200772    1.060078
      4          1           0        0.471931    0.036604   -0.288613
      5          6           0        2.354549    1.072015   -0.005569
      6          8           0        3.001534    1.838590   -0.667275
      7          8           0        2.986256    0.156317    0.784833
      8          1           0        2.328044   -0.383130    1.250475
 ---------------------------------------------------------------------
                    Distance matrix (angstroms):
                    1          2          3          4          5
     1  C    0.000000
     2  H    1.096520   0.000000
     3  H    1.103100   1.793809   0.000000
     4  H    1.103100   1.793809   1.781643   0.000000
     5  C    1.517771   2.147707   2.167126   2.167127   0.000000
     6  O    2.415300   2.569971   3.128812   3.128807   1.201700
     7  O    2.436044   3.349699   2.736510   2.736503   1.364659
     8  H    2.384203   3.447918   2.447481   2.447473   1.922445
                    6          7          8
     6  O    0.000000
     7  O    2.222362   0.000000
     8  H    3.011211   0.970087   0.000000
 Stoichiometry    C2H4O2
 Framework group  C1[X(C2H4O2)]
 Deg. of freedom    18
 Full point group                 C1      NOp   1
 Largest Abelian subgroup         C1      NOp   1
 Largest concise Abelian subgroup C1      NOp   1
                         Standard orientation:                         
 ---------------------------------------------------------------------
 Center     Atomic      Atomic             Coordinates (Angstroms)
 Number     Number       Type             X           Y           Z
 ---------------------------------------------------------------------
      1          6           0        1.374437   -0.037311    0.000001
      2          1           0        1.856519    0.947551    0.000004
      3          1           0        1.698590   -0.601398   -0.890820
      4          1           0        1.698582   -0.601400    0.890823
      5          6           0       -0.133085    0.138774   -0.000007
      6          8           0       -0.701252    1.197674    0.000002
      7          8           0       -0.854883   -1.019372    0.000001
      8          1           0       -0.252723   -1.779945    0.000003
 ---------------------------------------------------------------------
 Rotational constants (GHZ):     10.9459368      9.5389222      5.2669927
 Standard basis: CC-pVDZ (5D, 7F)
 There are    80 symmetry adapted cartesian basis functions of A   symmetry.
 There are    76 symmetry adapted basis functions of A   symmetry.
    76 basis functions,   160 primitive gaussians,    80 cartesian basis functions
    16 alpha electrons       16 beta electrons
       nuclear repulsion energy       120.4825786516 Hartrees.
 NAtoms=    8 NActive=    8 NUniq=    8 SFac= 1.00D+00 NAtFMM=   60 NAOKFM=F Big=F
 Integral buffers will be    131072 words long.
 Raffenetti 2 integral format.
 Two-electron integral symmetry is turned on.
 One-electron integrals computed using PRISM.
 NBasis=    76 RedAO= T EigKep=  5.09D-03  NBF=    76
 NBsUse=    76 1.00D-06 EigRej= -1.00D+00 NBFU=    76
 Initial guess from the checkpoint file:  "hoac.chk"
 B after Tr=     0.000000    0.000000    0.000000
         Rot=    0.999998    0.000000    0.000000    0.002162 Ang=  -0.25 deg.
 Keep R1 ints in memory in canonical form, NReq=5223337.
 Requested convergence on RMS density matrix=1.00D-08 within 128 cycles.
 Requested convergence on MAX density matrix=1.00D-06.
 Requested convergence on             energy=1.00D-06.
 No special actions if energy rises.
 SCF Done:  E(RB3LYP) =  -229.090865095     A.U. after    9 cycles
            NFock=  9  Conv=0.38D-08     -V/T= 2.0062
 Calling FoFJK, ICntrl=      2127 FMM=F ISym2X=0 I1Cent= 0 IOpClX= 0 NMat=1 NMatS=1 NMatT=0.
 ***** Axes restored to original set *****
 -------------------------------------------------------------------
 Center     Atomic                   Forces (Hartrees/Bohr)
 Number     Number              X              Y              Z
 -------------------------------------------------------------------
      1        6          -0.000049152   -0.000075591    0.000066539
      2        1           0.000056491   -0.000040453    0.000034966
      3        1           0.000040451    0.000019485   -0.000055017
      4        1           0.000040846    0.000057276   -0.000011274
      5        6          -0.000193349   -0.000157039    0.000131679
      6        8           0.000157483    0.000170399   -0.000145633
      7        8          -0.000269595   -0.000101240    0.000088312
      8        1           0.000216825    0.000127164   -0.000109573
 -------------------------------------------------------------------
 Cartesian Forces:  Max     0.000269595 RMS     0.000120602

 GradGradGradGradGradGradGradGradGradGradGradGradGradGradGradGradGradGrad
 Berny optimization.
 Using GEDIIS/GDIIS optimizer.
 FormGI is forming the generalized inverse of G from B-inverse, IUseBI=4.
 Internal  Forces:  Max     0.000272471 RMS     0.000085880
 Search for a local minimum.
 Step number   5 out of a maximum of  100
 All quantities printed in internal units (Hartrees-Bohrs-Radians)
 Mixed Optimization -- En-DIIS/RFO-DIIS
 Swapping is turned off.
 Update second derivatives using D2CorX and points    1    2    3    4    5
 DE= -1.52D-05 DEPred=-1.38D-05 R= 1.10D+00
 TightC=F SS=  1.41D+00  RLast= 1.02D-02 DXNew= 8.4853D-01 3.0586D-02
 Trust test= 1.10D+00 RLast= 1.02D-02 DXMaxT set to 5.05D-01
 ITU=  1  1  1  1  0
     Eigenvalues ---    0.00652   0.01301   0.03477   0.07315   0.07361
     Eigenvalues ---    0.14843   0.15903   0.16000   0.16227   0.20559
     Eigenvalues ---    0.28188   0.33191   0.36913   0.37230   0.37288
     Eigenvalues ---    0.44868   0.58430   0.82808
 En-DIIS/RFO-DIIS IScMMF=        0 using points:     5    4
 RFO step:  Lambda=-2.69354369D-07.
 DidBck=F Rises=F RFO-DIIS coefs:    1.03325   -0.03325
 Iteration  1 RMS(Cart)=  0.00026287 RMS(Int)=  0.00000008
 Iteration  2 RMS(Cart)=  0.00000009 RMS(Int)=  0.00000003
 Variable       Old X    -DE/DX   Delta X   Delta X   Delta X     New X
                                 (Linear)    (Quad)   (Total)
    R1        2.07212  -0.00007  -0.00004  -0.00017  -0.00021   2.07191
    R2        2.08456  -0.00006  -0.00006  -0.00013  -0.00019   2.08437
    R3        2.08456  -0.00006  -0.00006  -0.00013  -0.00019   2.08437
    R4        2.86817  -0.00009  -0.00012  -0.00018  -0.00030   2.86787
    R5        2.27088   0.00027  -0.00002   0.00041   0.00039   2.27128
    R6        2.57883  -0.00005   0.00022  -0.00040  -0.00018   2.57865
    R7        1.83320  -0.00027  -0.00008  -0.00041  -0.00049   1.83271
    A1        1.90721   0.00002  -0.00001   0.00005   0.00003   1.90724
    A2        1.90721   0.00002  -0.00001   0.00005   0.00003   1.90724
    A3        1.90972  -0.00006   0.00010  -0.00055  -0.00045   1.90927
    A4        1.88001   0.00004   0.00008   0.00042   0.00049   1.88050
    A5        1.92964  -0.00001  -0.00008   0.00003  -0.00004   1.92960
    A6        1.92964  -0.00001  -0.00008   0.00003  -0.00005   1.92960
    A7        2.17954   0.00003   0.00006   0.00002   0.00009   2.17963
    A8        2.01185  -0.00003  -0.00004  -0.00003  -0.00006   2.01179
    A9        2.09179  -0.00001  -0.00003   0.00000  -0.00002   2.09177
   A10        1.91459   0.00008   0.00004   0.00053   0.00057   1.91516
    D1       -0.00001   0.00000   0.00000   0.00004   0.00004   0.00003
    D2       -3.14158   0.00000   0.00000  -0.00004  -0.00004   3.14156
    D3       -2.10141   0.00002   0.00000   0.00032   0.00031  -2.10110
    D4        1.04020   0.00002   0.00000   0.00024   0.00023   1.04044
    D5        2.10139  -0.00002   0.00000  -0.00024  -0.00024   2.10115
    D6       -1.04018  -0.00002   0.00000  -0.00032  -0.00032  -1.04050
    D7       -0.00001   0.00000   0.00000   0.00003   0.00003   0.00003
    D8       -3.14158   0.00000   0.00000  -0.00004  -0.00004   3.14156
         Item               Value     Threshold  Converged?
 Maximum Force            0.000272     0.000015     NO 
 RMS     Force            0.000086     0.000010     NO 
 Maximum Displacement     0.000676     0.000060     NO 
 RMS     Displacement     0.000263     0.000040     NO 
 Predicted change in Energy=-2.171190D-07
 GradGradGradGradGradGradGradGradGradGradGradGradGradGradGradGradGradGrad

                          Input orientation:                          
 ---------------------------------------------------------------------
 Center     Atomic      Atomic             Coordinates (Angstroms)
 Number     Number       Type             X           Y           Z
 ---------------------------------------------------------------------
      1          6           0        0.837927    1.025712    0.034391
      2          1           0        0.432511    1.796868   -0.631244
      3          1           0        0.471967    1.200913    1.060054
      4          1           0        0.471949    0.036652   -0.288764
      5          6           0        2.354306    1.071964   -0.005558
      6          8           0        3.001428    1.838682   -0.667343
      7          8           0        2.985972    0.156352    0.784815
      8          1           0        2.328340   -0.383232    1.250578
 ---------------------------------------------------------------------
                    Distance matrix (angstroms):
                    1          2          3          4          5
     1  C    0.000000
     2  H    1.096409   0.000000
     3  H    1.102999   1.793657   0.000000
     4  H    1.102999   1.793657   1.781800   0.000000
     5  C    1.517611   2.147154   2.166877   2.166874   0.000000
     6  O    2.415386   2.569512   3.128709   3.128722   1.201909
     7  O    2.435780   3.349132   2.736253   2.736277   1.364564
     8  H    2.384443   3.447935   2.447843   2.447869   1.922536
                    6          7          8
     6  O    0.000000
     7  O    2.222440   0.000000
     8  H    3.011374   0.969827   0.000000
 Stoichiometry    C2H4O2
 Framework group  C1[X(C2H4O2)]
 Deg. of freedom    18
 Full point group                 C1      NOp   1
 Largest Abelian subgroup         C1      NOp   1
 Largest concise Abelian subgroup C1      NOp   1
                         Standard orientation:                         
 ---------------------------------------------------------------------
 Center     Atomic      Atomic             Coordinates (Angstroms)
 Number     Number       Type             X           Y           Z
 ---------------------------------------------------------------------
      1          6           0        1.374384   -0.036905   -0.000003
      2          1           0        1.855646    0.948235   -0.000015
      3          1           0        1.698658   -0.600597   -0.890903
      4          1           0        1.698681   -0.600585    0.890897
      5          6           0       -0.133038    0.138662    0.000019
      6          8           0       -0.701746    1.197508   -0.000006
      7          8           0       -0.854329   -1.019688   -0.000003
      8          1           0       -0.252461   -1.780161   -0.000006
 ---------------------------------------------------------------------
 Rotational constants (GHZ):     10.9450450      9.5404408      5.2672800
 Standard basis: CC-pVDZ (5D, 7F)
 There are    80 symmetry adapted cartesian basis functions of A   symmetry.
 There are    76 symmetry adapted basis functions of A   symmetry.
    76 basis functions,   160 primitive gaussians,    80 cartesian basis functions
    16 alpha electrons       16 beta electrons
       nuclear repulsion energy       120.4849869409 Hartrees.
 NAtoms=    8 NActive=    8 NUniq=    8 SFac= 1.00D+00 NAtFMM=   60 NAOKFM=F Big=F
 Integral buffers will be    131072 words long.
 Raffenetti 2 integral format.
 Two-electron integral symmetry is turned on.
 One-electron integrals computed using PRISM.
 NBasis=    76 RedAO= T EigKep=  5.09D-03  NBF=    76
 NBsUse=    76 1.00D-06 EigRej= -1.00D+00 NBFU=    76
 Initial guess from the checkpoint file:  "hoac.chk"
 B after Tr=     0.000000    0.000000    0.000000
         Rot=    1.000000    0.000000   -0.000001   -0.000192 Ang=   0.02 deg.
 Keep R1 ints in memory in canonical form, NReq=5223337.
 Requested convergence on RMS density matrix=1.00D-08 within 128 cycles.
 Requested convergence on MAX density matrix=1.00D-06.
 Requested convergence on             energy=1.00D-06.
 No special actions if energy rises.
 SCF Done:  E(RB3LYP) =  -229.090865276     A.U. after    7 cycles
            NFock=  7  Conv=0.64D-08     -V/T= 2.0062
 Calling FoFJK, ICntrl=      2127 FMM=F ISym2X=0 I1Cent= 0 IOpClX= 0 NMat=1 NMatS=1 NMatT=0.
 ***** Axes restored to original set *****
 -------------------------------------------------------------------
 Center     Atomic                   Forces (Hartrees/Bohr)
 Number     Number              X              Y              Z
 -------------------------------------------------------------------
      1        6          -0.000006702   -0.000016851    0.000010982
      2        1          -0.000007925    0.000005132   -0.000004604
      3        1           0.000007079    0.000003475   -0.000002732
      4        1           0.000005929    0.000003138   -0.000002977
      5        6           0.000013547    0.000025348   -0.000010744
      6        8          -0.000026670   -0.000045756    0.000035327
      7        8          -0.000003237    0.000007607   -0.000009258
      8        1           0.000017979    0.000017908   -0.000015992
 -------------------------------------------------------------------
 Cartesian Forces:  Max     0.000045756 RMS     0.000016747

 GradGradGradGradGradGradGradGradGradGradGradGradGradGradGradGradGradGrad
 Berny optimization.
 Using GEDIIS/GDIIS optimizer.
 FormGI is forming the generalized inverse of G from B-inverse, IUseBI=4.
 Internal  Forces:  Max     0.000064193 RMS     0.000016546
 Search for a local minimum.
 Step number   6 out of a maximum of  100
 All quantities printed in internal units (Hartrees-Bohrs-Radians)
 Mixed Optimization -- En-DIIS/RFO-DIIS
 Swapping is turned off.
 Update second derivatives using D2CorX and points    1    2    3    4    5
                                                      6
 DE= -1.81D-07 DEPred=-2.17D-07 R= 8.36D-01
 Trust test= 8.36D-01 RLast= 1.32D-03 DXMaxT set to 5.05D-01
 ITU=  0  1  1  1  1  0
     Eigenvalues ---    0.00652   0.01304   0.03477   0.07142   0.07366
     Eigenvalues ---    0.15068   0.15634   0.16003   0.16332   0.20984
     Eigenvalues ---    0.27640   0.34073   0.37097   0.37230   0.37752
     Eigenvalues ---    0.43933   0.55690   0.92111
 En-DIIS/RFO-DIIS IScMMF=        0 using points:     6    5    4
 RFO step:  Lambda= 0.00000000D+00.
 DidBck=F Rises=F RFO-DIIS coefs:    0.97937    0.02249   -0.00186
 Iteration  1 RMS(Cart)=  0.00006310 RMS(Int)=  0.00000001
 Iteration  2 RMS(Cart)=  0.00000000 RMS(Int)=  0.00000000
 Variable       Old X    -DE/DX   Delta X   Delta X   Delta X     New X
                                 (Linear)    (Quad)   (Total)
    R1        2.07191   0.00001   0.00000   0.00002   0.00002   2.07193
    R2        2.08437  -0.00001   0.00000  -0.00002  -0.00002   2.08434
    R3        2.08437  -0.00001   0.00000  -0.00002  -0.00002   2.08434
    R4        2.86787   0.00000   0.00000  -0.00001  -0.00001   2.86786
    R5        2.27128  -0.00006  -0.00001  -0.00005  -0.00006   2.27122
    R6        2.57865  -0.00002   0.00002  -0.00005  -0.00003   2.57862
    R7        1.83271  -0.00003   0.00001  -0.00006  -0.00005   1.83265
    A1        1.90724   0.00000   0.00000  -0.00001  -0.00001   1.90723
    A2        1.90724   0.00000   0.00000  -0.00001  -0.00001   1.90723
    A3        1.90927   0.00000   0.00002  -0.00003  -0.00002   1.90926
    A4        1.88050   0.00001  -0.00001   0.00009   0.00009   1.88059
    A5        1.92960  -0.00001   0.00000  -0.00003  -0.00003   1.92957
    A6        1.92960   0.00000   0.00000  -0.00001  -0.00002   1.92958
    A7        2.17963   0.00000   0.00000   0.00001   0.00001   2.17964
    A8        2.01179   0.00002   0.00000   0.00007   0.00007   2.01185
    A9        2.09177  -0.00003   0.00000  -0.00008  -0.00008   2.09169
   A10        1.91516  -0.00001  -0.00001  -0.00002  -0.00003   1.91513
    D1        0.00003   0.00000   0.00000  -0.00010  -0.00010  -0.00008
    D2        3.14156   0.00000   0.00000   0.00011   0.00012  -3.14151
    D3       -2.10110   0.00000  -0.00001  -0.00005  -0.00006  -2.10116
    D4        1.04044   0.00000   0.00000   0.00016   0.00016   1.04059
    D5        2.10115   0.00000   0.00001  -0.00014  -0.00014   2.10101
    D6       -1.04050   0.00000   0.00001   0.00007   0.00008  -1.04042
    D7        0.00003   0.00000   0.00000  -0.00009  -0.00009  -0.00007
    D8        3.14156   0.00000   0.00000   0.00011   0.00011  -3.14151
         Item               Value     Threshold  Converged?
 Maximum Force            0.000064     0.000015     NO 
 RMS     Force            0.000017     0.000010     NO 
 Maximum Displacement     0.000141     0.000060     NO 
 RMS     Displacement     0.000063     0.000040     NO 
 Predicted change in Energy=-6.608319D-09
 GradGradGradGradGradGradGradGradGradGradGradGradGradGradGradGradGradGrad

                          Input orientation:                          
 ---------------------------------------------------------------------
 Center     Atomic      Atomic             Coordinates (Angstroms)
 Number     Number       Type             X           Y           Z
 ---------------------------------------------------------------------
      1          6           0        0.837901    1.025711    0.034407
      2          1           0        0.432511    1.796862   -0.631268
      3          1           0        0.471934    1.200970    1.060044
      4          1           0        0.471971    0.036658   -0.288778
      5          6           0        2.354275    1.071985   -0.005484
      6          8           0        3.001408    1.838608   -0.667311
      7          8           0        2.985999    0.156349    0.784784
      8          1           0        2.328402   -0.383234    1.250537
 ---------------------------------------------------------------------
                    Distance matrix (angstroms):
                    1          2          3          4          5
     1  C    0.000000
     2  H    1.096420   0.000000
     3  H    1.102986   1.793649   0.000000
     4  H    1.102987   1.793649   1.781837   0.000000
     5  C    1.517605   2.147145   2.166840   2.166847   0.000000
     6  O    2.415361   2.569489   3.128670   3.128635   1.201876
     7  O    2.435812   3.349147   2.736334   2.736274   1.364547
     8  H    2.384469   3.447957   2.447951   2.447883   1.922478
                    6          7          8
     6  O    0.000000
     7  O    2.222344   0.000000
     8  H    3.011255   0.969799   0.000000
 Stoichiometry    C2H4O2
 Framework group  C1[X(C2H4O2)]
 Deg. of freedom    18
 Full point group                 C1      NOp   1
 Largest Abelian subgroup         C1      NOp   1
 Largest concise Abelian subgroup C1      NOp   1
                         Standard orientation:                         
 ---------------------------------------------------------------------
 Center     Atomic      Atomic             Coordinates (Angstroms)
 Number     Number       Type             X           Y           Z
 ---------------------------------------------------------------------
      1          6           0        1.374397   -0.037088    0.000007
      2          1           0        1.855772    0.948009    0.000039
      3          1           0        1.698619   -0.600763   -0.890909
      4          1           0        1.698558   -0.600789    0.890928
      5          6           0       -0.132996    0.138667   -0.000051
      6          8           0       -0.701571    1.197547    0.000015
      7          8           0       -0.854502   -1.019528    0.000009
      8          1           0       -0.252774   -1.780076    0.000018
 ---------------------------------------------------------------------
 Rotational constants (GHZ):     10.9459424      9.5402046      5.2674231
 Standard basis: CC-pVDZ (5D, 7F)
 There are    80 symmetry adapted cartesian basis functions of A   symmetry.
 There are    76 symmetry adapted basis functions of A   symmetry.
    76 basis functions,   160 primitive gaussians,    80 cartesian basis functions
    16 alpha electrons       16 beta electrons
       nuclear repulsion energy       120.4867964188 Hartrees.
 NAtoms=    8 NActive=    8 NUniq=    8 SFac= 1.00D+00 NAtFMM=   60 NAOKFM=F Big=F
 Integral buffers will be    131072 words long.
 Raffenetti 2 integral format.
 Two-electron integral symmetry is turned on.
 One-electron integrals computed using PRISM.
 NBasis=    76 RedAO= T EigKep=  5.09D-03  NBF=    76
 NBsUse=    76 1.00D-06 EigRej= -1.00D+00 NBFU=    76
 Initial guess from the checkpoint file:  "hoac.chk"
 B after Tr=     0.000000    0.000000    0.000000
         Rot=    1.000000   -0.000001    0.000002    0.000071 Ang=  -0.01 deg.
 Keep R1 ints in memory in canonical form, NReq=5223337.
 Requested convergence on RMS density matrix=1.00D-08 within 128 cycles.
 Requested convergence on MAX density matrix=1.00D-06.
 Requested convergence on             energy=1.00D-06.
 No special actions if energy rises.
 SCF Done:  E(RB3LYP) =  -229.090865292     A.U. after    6 cycles
            NFock=  6  Conv=0.56D-08     -V/T= 2.0062
 Calling FoFJK, ICntrl=      2127 FMM=F ISym2X=0 I1Cent= 0 IOpClX= 0 NMat=1 NMatS=1 NMatT=0.
 ***** Axes restored to original set *****
 -------------------------------------------------------------------
 Center     Atomic                   Forces (Hartrees/Bohr)
 Number     Number              X              Y              Z
 -------------------------------------------------------------------
      1        6          -0.000002042   -0.000000807    0.000010246
      2        1          -0.000004462    0.000000732   -0.000000175
      3        1          -0.000001157   -0.000000866    0.000003469
      4        1           0.000001914   -0.000003372    0.000000186
      5        6           0.000006410   -0.000012690   -0.000018857
      6        8          -0.000004223    0.000008965    0.000003437
      7        8           0.000001450    0.000008992   -0.000000577
      8        1           0.000002110   -0.000000955    0.000002270
 -------------------------------------------------------------------
 Cartesian Forces:  Max     0.000018857 RMS     0.000006195

 GradGradGradGradGradGradGradGradGradGradGradGradGradGradGradGradGradGrad
 Berny optimization.
 Using GEDIIS/GDIIS optimizer.
 FormGI is forming the generalized inverse of G from B-inverse, IUseBI=4.
 Internal  Forces:  Max     0.000004941 RMS     0.000002912
 Search for a local minimum.
 Step number   7 out of a maximum of  100
 All quantities printed in internal units (Hartrees-Bohrs-Radians)
 Mixed Optimization -- En-DIIS/RFO-DIIS
 Swapping is turned off.
 Update second derivatives using D2CorX and points    1    2    3    4    5
                                                      6    7
 DE= -1.58D-08 DEPred=-6.61D-09 R= 2.39D+00
 Trust test= 2.39D+00 RLast= 3.62D-04 DXMaxT set to 5.05D-01
 ITU=  0  0  1  1  1  1  0
     Eigenvalues ---    0.00653   0.01917   0.03488   0.06785   0.07377
     Eigenvalues ---    0.15137   0.15229   0.16129   0.16405   0.21034
     Eigenvalues ---    0.28662   0.33900   0.36861   0.37242   0.37601
     Eigenvalues ---    0.43555   0.55467   0.87563
 En-DIIS/RFO-DIIS IScMMF=        0 using points:     7    6    5    4
 RFO step:  Lambda= 0.00000000D+00.
 DidBck=T Rises=F RFO-DIIS coefs:    0.77251    0.23139   -0.00397    0.00007
 Iteration  1 RMS(Cart)=  0.00006937 RMS(Int)=  0.00000001
 Iteration  2 RMS(Cart)=  0.00000001 RMS(Int)=  0.00000001
 Variable       Old X    -DE/DX   Delta X   Delta X   Delta X     New X
                                 (Linear)    (Quad)   (Total)
    R1        2.07193   0.00000  -0.00001   0.00002   0.00001   2.07195
    R2        2.08434   0.00000   0.00000  -0.00001  -0.00001   2.08434
    R3        2.08434   0.00000   0.00000  -0.00001  -0.00001   2.08434
    R4        2.86786   0.00000   0.00000   0.00000   0.00000   2.86786
    R5        2.27122   0.00000   0.00002  -0.00004  -0.00002   2.27120
    R6        2.57862   0.00000   0.00001  -0.00002  -0.00002   2.57860
    R7        1.83265   0.00000   0.00001  -0.00003  -0.00002   1.83263
    A1        1.90723   0.00000   0.00000  -0.00001  -0.00001   1.90722
    A2        1.90723   0.00000   0.00000  -0.00001  -0.00001   1.90722
    A3        1.90926   0.00000   0.00000  -0.00002  -0.00001   1.90924
    A4        1.88059   0.00000  -0.00002   0.00007   0.00005   1.88064
    A5        1.92957   0.00000   0.00001   0.00000   0.00000   1.92957
    A6        1.92958   0.00000   0.00000  -0.00002  -0.00002   1.92956
    A7        2.17964   0.00000   0.00000   0.00001   0.00000   2.17965
    A8        2.01185   0.00000  -0.00002   0.00004   0.00002   2.01187
    A9        2.09169   0.00000   0.00002  -0.00004  -0.00002   2.09166
   A10        1.91513   0.00000   0.00001  -0.00001   0.00000   1.91513
    D1       -0.00008   0.00000   0.00002   0.00015   0.00018   0.00010
    D2       -3.14151   0.00000  -0.00003  -0.00017  -0.00020   3.14148
    D3       -2.10116   0.00000   0.00001   0.00018   0.00020  -2.10096
    D4        1.04059   0.00000  -0.00004  -0.00015  -0.00018   1.04041
    D5        2.10101   0.00000   0.00003   0.00012   0.00015   2.10116
    D6       -1.04042   0.00000  -0.00002  -0.00021  -0.00023  -1.04065
    D7       -0.00007   0.00000   0.00002   0.00014   0.00016   0.00009
    D8       -3.14151   0.00000  -0.00003  -0.00017  -0.00020   3.14148
         Item               Value     Threshold  Converged?
 Maximum Force            0.000005     0.000015     YES
 RMS     Force            0.000003     0.000010     YES
 Maximum Displacement     0.000166     0.000060     NO 
 RMS     Displacement     0.000069     0.000040     NO 
 Predicted change in Energy=-2.945976D-09
 GradGradGradGradGradGradGradGradGradGradGradGradGradGradGradGradGradGrad

                          Input orientation:                          
 ---------------------------------------------------------------------
 Center     Atomic      Atomic             Coordinates (Angstroms)
 Number     Number       Type             X           Y           Z
 ---------------------------------------------------------------------
      1          6           0        0.837889    1.025692    0.034396
      2          1           0        0.432514    1.796892   -0.631243
      3          1           0        0.471978    1.200953    1.060049
      4          1           0        0.471919    0.036672   -0.288832
      5          6           0        2.354265    1.071898   -0.005568
      6          8           0        3.001398    1.838617   -0.667263
      7          8           0        2.986006    0.156384    0.784812
      8          1           0        2.328430   -0.383196    1.250578
 ---------------------------------------------------------------------
                    Distance matrix (angstroms):
                    1          2          3          4          5
     1  C    0.000000
     2  H    1.096428   0.000000
     3  H    1.102983   1.793647   0.000000
     4  H    1.102983   1.793648   1.781862   0.000000
     5  C    1.517606   2.147141   2.166841   2.166832   0.000000
     6  O    2.415356   2.569476   3.128608   3.128655   1.201865
     7  O    2.435821   3.349149   2.736278   2.736362   1.364537
     8  H    2.384486   3.447975   2.447906   2.448000   1.922464
                    6          7          8
     6  O    0.000000
     7  O    2.222311   0.000000
[...]
 Red. masses --      1.8616                 1.5214                 1.0514
 Frc consts  --      1.8768                 1.6980                 1.2887
 IR Inten    --    327.9095                99.8885                 4.8901
  Atom  AN      X      Y      Z        X      Y      Z        X      Y      Z
     1   6     0.01  -0.04   0.00     0.17   0.00   0.00    -0.01  -0.05   0.00
     2   1    -0.32   0.12   0.00    -0.41   0.27   0.00     0.38  -0.22   0.00
     3   1    -0.26   0.11  -0.17    -0.55  -0.07  -0.21    -0.08   0.51  -0.37
     4   1    -0.26   0.11   0.17    -0.55  -0.07   0.21    -0.08   0.51   0.37
     5   6     0.18   0.12   0.00    -0.10  -0.06   0.00    -0.03  -0.01   0.00
     6   8    -0.01  -0.05   0.00     0.01   0.02   0.00     0.01  -0.01   0.00
     7   8    -0.12  -0.06   0.00     0.04   0.03   0.00     0.01   0.01   0.00
     8   1     0.60   0.49   0.00    -0.12  -0.09   0.00    -0.05  -0.04   0.00
                     13                     14                     15
                      A                      A                      A
 Frequencies --   1456.7373              1878.1105              3035.5845
 Red. masses --      1.0439                10.0288                 1.0390
 Frc consts  --      1.3052                20.8421                 5.6409
 IR Inten    --      8.3408               260.2759                 4.4693
  Atom  AN      X      Y      Z        X      Y      Z        X      Y      Z
     1   6     0.00   0.00  -0.05     0.04  -0.04   0.00     0.05  -0.03   0.00
     2   1     0.00   0.00   0.72    -0.19   0.11   0.00    -0.15  -0.33   0.00
     3   1    -0.35  -0.34   0.05     0.11  -0.06   0.05    -0.18   0.33   0.54
     4   1     0.35   0.34   0.05     0.11  -0.06  -0.05    -0.18   0.33  -0.54
     5   6     0.00   0.00  -0.02    -0.37   0.63   0.00     0.00   0.00   0.00
     6   8     0.00   0.00   0.00     0.22  -0.40   0.00     0.00   0.00   0.00
     7   8     0.00   0.00   0.00     0.04  -0.03   0.00     0.00   0.00   0.00
     8   1     0.00   0.00  -0.02    -0.32  -0.27   0.00     0.00   0.00   0.00
                     16                     17                     18
                      A                      A                      A
 Frequencies --   3102.6388              3166.4380              3764.1773
 Red. masses --      1.1007                 1.1011                 1.0660
 Frc consts  --      6.2428                 6.5044                 8.8989
 IR Inten    --      8.2641                 3.3780                36.8314
  Atom  AN      X      Y      Z        X      Y      Z        X      Y      Z
     1   6     0.00   0.00   0.09    -0.02  -0.09   0.00     0.00   0.00   0.00
     2   1     0.00   0.00   0.02     0.41   0.84   0.00     0.00   0.00   0.00
     3   1     0.21  -0.37  -0.56    -0.07   0.11   0.20     0.00   0.00   0.00
     4   1    -0.21   0.37  -0.56    -0.07   0.11  -0.20     0.00   0.00   0.00
     5   6     0.00   0.00   0.00     0.00   0.00   0.00     0.00   0.00   0.00
     6   8     0.00   0.00   0.00     0.00   0.00   0.00     0.00   0.00   0.00
     7   8     0.00   0.00   0.00     0.00   0.00   0.00     0.04  -0.05   0.00
     8   1     0.00   0.00   0.00     0.00   0.00   0.00    -0.61   0.79   0.00

 -------------------
 - Thermochemistry -
 -------------------
 Temperature   298.150 Kelvin.  Pressure   1.00000 Atm.
 Atom     1 has atomic number  6 and mass  12.00000
 Atom     2 has atomic number  1 and mass   1.00783
 Atom     3 has atomic number  1 and mass   1.00783
 Atom     4 has atomic number  1 and mass   1.00783
 Atom     5 has atomic number  6 and mass  12.00000
 Atom     6 has atomic number  8 and mass  15.99491
 Atom     7 has atomic number  8 and mass  15.99491
 Atom     8 has atomic number  1 and mass   1.00783
 Molecular mass:    60.02113 amu.
 Principal axes and moments of inertia in atomic units:
                           1         2         3
     Eigenvalues --   164.87817 189.17243 342.62378
           X            1.00000   0.00011   0.00000
           Y           -0.00011   1.00000   0.00000
           Z            0.00000   0.00000   1.00000
 This molecule is an asymmetric top.
 Rotational symmetry number  1.
 Rotational temperatures (Kelvin)      0.52532     0.45786     0.25280
 Rotational constants (GHZ):          10.94591     9.54019     5.26741
 Zero-point vibrational energy     160451.3 (Joules/Mol)
                                   38.34877 (Kcal/Mol)
 Warning -- explicit consideration of   5 degrees of freedom as
           vibrations may cause significant error
 Vibrational temperatures:    167.93   611.48   667.77   855.88   859.20
          (Kelvin)           1243.19  1409.44  1504.43  1737.64  1882.08
                             1980.21  2075.18  2095.92  2702.18  4367.52
                             4464.00  4555.79  5415.80
 
 Zero-point correction=                           0.061113 (Hartree/Particle)
 Thermal correction to Energy=                    0.065691
 Thermal correction to Enthalpy=                  0.066636
 Thermal correction to Gibbs Free Energy=         0.034215
 Sum of electronic and zero-point Energies=           -229.029753
 Sum of electronic and thermal Energies=              -229.025174
 Sum of electronic and thermal Enthalpies=            -229.024230
 Sum of electronic and thermal Free Energies=         -229.056650
 
                     E (Thermal)             CV                S
                      KCal/Mol        Cal/Mol-Kelvin    Cal/Mol-Kelvin
 Total                   41.222             14.661             68.235
 Electronic               0.000              0.000              0.000
 Translational            0.889              2.981             38.196
 Rotational               0.889              2.981             23.884
 Vibrational             39.445              8.699              6.155
 Vibration     1          0.608              1.935              3.154
 Vibration     2          0.787              1.416              0.875
 Vibration     3          0.822              1.330              0.754
 Vibration     4          0.953              1.043              0.459
 Vibration     5          0.955              1.038              0.455
                       Q            Log10(Q)             Ln(Q)
 Total Bot       0.182908D-15        -15.737768        -36.237550
 Total V=0       0.235529D+13         12.372044         28.487685
 Vib (Bot)       0.270430D-27        -27.567945        -63.477539
 Vib (Bot)    1  0.175218D+01          0.243579          0.560861
 Vib (Bot)    2  0.411563D+00         -0.385564         -0.887794
 Vib (Bot)    3  0.365222D+00         -0.437444         -1.007251
 Vib (Bot)    4  0.252338D+00         -0.598017         -1.376986
 Vib (Bot)    5  0.250769D+00         -0.600727         -1.383224
 Vib (V=0)       0.348231D+01          0.541867          1.247695
 Vib (V=0)    1  0.232212D+01          0.365886          0.842483
 Vib (V=0)    2  0.114760D+01          0.059790          0.137672
 Vib (V=0)    3  0.111918D+01          0.048901          0.112598
 Vib (V=0)    4  0.106007D+01          0.025333          0.058332
 Vib (V=0)    5  0.105936D+01          0.025044          0.057666
 Electronic      0.100000D+01          0.000000          0.000000
 Translational   0.182773D+08          7.261911         16.721169
 Rotational      0.370054D+05          4.568266         10.518820
 ***** Axes restored to original set *****
 -------------------------------------------------------------------
 Center     Atomic                   Forces (Hartrees/Bohr)
 Number     Number              X              Y              Z
 -------------------------------------------------------------------
      1        6          -0.000001449   -0.000002149    0.000001853
      2        1          -0.000003345   -0.000002202    0.000001903
      3        1           0.000000884   -0.000001983    0.000001820
      4        1           0.000000897   -0.000002075    0.000001703
      5        6          -0.000000134    0.000001532   -0.000001381
      6        8          -0.000003218    0.000003013   -0.000002578
      7        8           0.000002683    0.000002696   -0.000002315
      8        1           0.000003682    0.000001169   -0.000001005
 -------------------------------------------------------------------
 Cartesian Forces:  Max     0.000003682 RMS     0.000002160
 FormGI is forming the generalized inverse of G from B-inverse, IUseBI=4.

 GradGradGradGradGradGradGradGradGradGradGradGradGradGradGradGradGradGrad
 Berny optimization.
 Internal  Forces:  Max     0.000000687 RMS     0.000000261
 Search for a local minimum.
 Step number   1 out of a maximum of    2
 All quantities printed in internal units (Hartrees-Bohrs-Radians)
 Second derivative matrix not updated -- analytic derivatives used.
 ITU=  0
     Eigenvalues ---    0.00091   0.01121   0.04568   0.05501   0.05515
     Eigenvalues ---    0.11904   0.12383   0.13497   0.16439   0.21458
     Eigenvalues ---    0.23813   0.32952   0.33494   0.33988   0.35271
     Eigenvalues ---    0.40452   0.51203   0.91660
 Angle between quadratic step and forces=  40.51 degrees.
 Linear search not attempted -- first point.
 Iteration  1 RMS(Cart)=  0.00000209 RMS(Int)=  0.00000000
 Iteration  2 RMS(Cart)=  0.00000000 RMS(Int)=  0.00000000
 Variable       Old X    -DE/DX   Delta X   Delta X   Delta X     New X
                                 (Linear)    (Quad)   (Total)
    R1        2.07195   0.00000   0.00000   0.00000   0.00000   2.07195
    R2        2.08435   0.00000   0.00000   0.00000   0.00000   2.08435
    R3        2.08435   0.00000   0.00000   0.00000   0.00000   2.08435
    R4        2.86787   0.00000   0.00000   0.00000   0.00000   2.86787
    R5        2.27122   0.00000   0.00000   0.00000   0.00000   2.27122
    R6        2.57861   0.00000   0.00000   0.00000   0.00000   2.57861
    R7        1.83266   0.00000   0.00000   0.00000   0.00000   1.83266
    A1        1.90723   0.00000   0.00000   0.00000   0.00000   1.90722
    A2        1.90723   0.00000   0.00000   0.00000   0.00000   1.90722
    A3        1.90925   0.00000   0.00000   0.00000   0.00000   1.90925
    A4        1.88061   0.00000   0.00000   0.00000   0.00000   1.88061
    A5        1.92957   0.00000   0.00000   0.00000   0.00000   1.92957
    A6        1.92957   0.00000   0.00000   0.00000   0.00000   1.92957
    A7        2.17964   0.00000   0.00000   0.00000   0.00000   2.17964
    A8        2.01185   0.00000   0.00000   0.00000   0.00000   2.01185
    A9        2.09170   0.00000   0.00000   0.00000   0.00000   2.09170
   A10        1.91514   0.00000   0.00000   0.00000   0.00000   1.91514
    D1        0.00000   0.00000   0.00000   0.00000   0.00000   0.00000
    D2        3.14159   0.00000   0.00000   0.00000   0.00000   3.14159
    D3       -2.10108   0.00000   0.00000   0.00000   0.00000  -2.10107
    D4        1.04052   0.00000   0.00000   0.00000   0.00000   1.04052
    D5        2.10107   0.00000   0.00000   0.00000   0.00000   2.10107
    D6       -1.04052   0.00000   0.00000   0.00000   0.00000  -1.04052
    D7        0.00000   0.00000   0.00000   0.00000   0.00000   0.00000
    D8       -3.14159   0.00000   0.00000   0.00000   0.00000   3.14159
         Item               Value     Threshold  Converged?
 Maximum Force            0.000001     0.000450     YES
 RMS     Force            0.000000     0.000300     YES
 Maximum Displacement     0.000006     0.001800     YES
 RMS     Displacement     0.000002     0.001200     YES
 Predicted change in Energy=-4.028989D-12
 Optimization completed.
    -- Stationary point found.
                           ----------------------------
                           !   Optimized Parameters   !
                           ! (Angstroms and Degrees)  !
 --------------------------                            --------------------------
 ! Name  Definition              Value          Derivative Info.                !
 --------------------------------------------------------------------------------
 ! R1    R(1,2)                  1.0964         -DE/DX =    0.0                 !
 ! R2    R(1,3)                  1.103          -DE/DX =    0.0                 !
 ! R3    R(1,4)                  1.103          -DE/DX =    0.0                 !
 ! R4    R(1,5)                  1.5176         -DE/DX =    0.0                 !
 ! R5    R(5,6)                  1.2019         -DE/DX =    0.0                 !
 ! R6    R(5,7)                  1.3645         -DE/DX =    0.0                 !
 ! R7    R(7,8)                  0.9698         -DE/DX =    0.0                 !
 ! A1    A(2,1,3)              109.276          -DE/DX =    0.0                 !
 ! A2    A(2,1,4)              109.276          -DE/DX =    0.0                 !
 ! A3    A(2,1,5)              109.3919         -DE/DX =    0.0                 !
 ! A4    A(3,1,4)              107.7509         -DE/DX =    0.0                 !
 ! A5    A(3,1,5)              110.5565         -DE/DX =    0.0                 !
 ! A6    A(4,1,5)              110.5565         -DE/DX =    0.0                 !
 ! A7    A(1,5,6)              124.8843         -DE/DX =    0.0                 !
 ! A8    A(1,5,7)              115.2704         -DE/DX =    0.0                 !
 ! A9    A(6,5,7)              119.8454         -DE/DX =    0.0                 !
 ! A10   A(5,7,8)              109.7293         -DE/DX =    0.0                 !
 ! D1    D(2,1,5,6)              0.0            -DE/DX =    0.0                 !
 ! D2    D(2,1,5,7)            180.0            -DE/DX =    0.0                 !
 ! D3    D(3,1,5,6)           -120.3828         -DE/DX =    0.0                 !
 ! D4    D(3,1,5,7)             59.6172         -DE/DX =    0.0                 !
 ! D5    D(4,1,5,6)            120.3827         -DE/DX =    0.0                 !
 ! D6    D(4,1,5,7)            -59.6173         -DE/DX =    0.0                 !
 ! D7    D(1,5,7,8)              0.0            -DE/DX =    0.0                 !
 ! D8    D(6,5,7,8)            180.0            -DE/DX =    0.0                 !
 --------------------------------------------------------------------------------
 GradGradGradGradGradGradGradGradGradGradGradGradGradGradGradGradGradGrad

 1\1\GINC-BARREL\Freq\RB3LYP\CC-pVDZ\C2H4O2\FLORIAN\19-Nov-2020\0\\# b3
 lyp/cc-pvdz freq geom=allcheck\\opt of hoac coords\\0,1\C,0.8378987567
 ,1.0257021729,0.0344031753\H,0.4325115985,1.796874892,-0.6312577181\H,
 0.4719510452,1.2009608518,1.0600499001\H,0.4719479767,0.0366597638,-0.
 2887991523\C,2.3542799682,1.0719525265,-0.0055227516\O,3.0014066459,1.
 8386221618,-0.6672999402\O,2.9859981285,0.1563620708,0.7847968162\H,2.
 3284058802,-0.3832244262,1.2505596859\\Version=ES64L-G09RevD.01\State=
 1-A\HF=-229.0908653\RMSD=9.699e-09\RMSF=2.160e-06\ZeroPoint=0.0611127\
 Thermal=0.0656914\Dipole=-1.272166,-0.7677682,0.6627267\DipoleDeriv=-0
 .3208279,0.0013981,-0.0012059,-0.0216649,0.0242785,0.0524411,0.0187015
 ,0.052441,0.0397655,0.0413851,0.012891,-0.0111272,0.0456151,0.0172626,
 0.0561146,-0.039374,0.0561147,0.0338347,0.0285062,0.0019426,0.0117576,
 0.014085,0.0882507,-0.0078883,0.0486783,-0.0208624,-0.0743929,0.028506
 ,-0.011348,-0.0036392,-0.0460989,-0.0667673,-0.0437526,-0.0210446,-0.0
 307785,0.0806253,1.3304069,-0.0753571,0.0650444,-0.0165104,1.1242147,-
 0.764152,0.0142489,-0.7641518,0.8985434,-0.7634477,-0.2351291,0.202960
 3,-0.1458266,-0.6977015,0.3276888,0.125876,0.3276891,-0.6009286,-0.532
 8209,0.3815721,-0.3293657,0.2236406,-0.7938007,0.3756816,-0.1930421,0.
 3756811,-0.6828521,0.1882922,-0.0759696,0.0655759,-0.05324,0.304263,0.
 0038669,0.0459561,0.0038669,0.3054047\Polar=29.2651535,1.6891045,27.22
 05065,-1.4580276,-6.5182428,25.2955332\PG=C01 [X(C2H4O2)]\NImag=0\\0.4
 6592593,-0.01438096,0.56981502,0.01241347,-0.03717804,0.55883551,-0.08
 132990,0.06868929,-0.05929122,0.08893539,0.07478830,-0.18663470,0.1224
 4035,-0.07834328,0.19664973,-0.06455577,0.12244036,-0.15047480,0.06762
 434,-0.13171780,0.15774994,-0.07286353,0.01855195,0.08161829,0.0036615
 9,-0.00336976,-0.01101879,0.07727529,0.01674903,-0.04810983,-0.0387962
 8,-0.00869051,0.00504870,0.01977102,-0.01612990,0.04955716,0.07990700,
 -0.03911998,-0.27572579,0.00612818,-0.00489929,-0.01500880,-0.08871290
 ,0.04333294,0.29694703,-0.07286402,-0.07803333,-0.03027572,0.00366163,
 0.01040834,0.00494321,0.00338433,0.01036822,0.00270613,0.07727581,-0.0
 7660375,-0.25960857,-0.07035011,-0.00733200,-0.01672994,-0.00811516,-0
 .00116254,-0.00378958,-0.00043571,0.08540569,0.27914341,-0.02824215,-0
 .07002641,-0.06422650,0.00770214,0.01655510,0.00676980,-0.01065239,-0.
 02641659,-0.00775463,0.02891603,0.07723389,0.06736020,-0.18829122,0.00
 465396,-0.00401699,-0.00917879,-0.00204667,0.00176666,-0.00597782,-0.0
 0210356,-0.00059312,-0.00597792,0.00027950,0.00216766,0.70494856,0.007
 16607,-0.08739611,-0.00354983,0.02679988,-0.00111503,-0.00110452,0.005
 32574,-0.00139934,0.00372725,-0.03445324,-0.00144545,0.00224555,0.1840
 8784,0.60570044,-0.00618539,-0.00354982,-0.08844442,-0.02313314,-0.001
 10445,-0.00144116,0.03561326,0.00225228,-0.00056359,-0.01047090,0.0037
 2046,-0.00051738,-0.15890252,-0.32923541,0.50847091,-0.02791608,-0.031
 20877,0.02693899,0.00355084,-0.00061110,0.00052748,-0.00575504,-0.0019
 0678,0.00046466,-0.00575500,-0.00073820,0.00181846,-0.33040592,-0.2372
 8655,0.20482215,0.32847340,-0.01524456,0.00783734,0.01657376,-0.001419
 59,0.00068245,-0.00112488,-0.00324990,-0.00054102,-0.00190034,0.002616
 64,0.00144890,-0.00033521,-0.24283820,-0.35456245,0.24003865,0.2701307
 9,0.39754808,0.01315896,0.01657379,0.01273183,0.00122535,-0.00112488,0
 .00035024,-0.00312487,-0.00062903,0.00111881,0.00367152,-0.00160650,-0
 .00087115,0.20961424,0.24003864,-0.28367501,-0.23317282,-0.31671461,0.
 30401668,-0.02099598,0.02983416,-0.02575222,-0.00858319,-0.00064794,0.
 00055931,0.00073268,0.00077029,-0.00002116,0.00073269,0.00013346,-0.00
 075894,-0.17815921,0.03656414,-0.03156120,0.03652388,-0.01488012,0.012
 84420,0.43611177,0.00782691,0.00115032,0.01204565,0.00136868,0.0022551
 7,0.00052851,-0.00110925,-0.00032025,-0.00015582,0.00373366,0.00090951
 ,0.00097379,0.08582883,-0.13922193,0.07643761,-0.00387682,-0.05129891,
 0.05651224,0.09740267,0.34659723,-0.00675596,0.01204561,0.00470775,-0.
 00118139,0.00052851,0.00241126,-0.00393794,0.00079221,0.00103031,0.001
 67260,0.00002576,-0.00019947,-0.07408558,0.07643772,-0.11664787,0.0033
 4634,0.05651227,-0.03460964,-0.08407721,-0.27832982,0.26440067,-0.0016
 6520,0.00189369,-0.00163459,-0.00071758,-0.00017790,0.00015356,-0.0004
 5750,0.00094322,0.00012122,-0.00045750,0.00001786,-0.00095081,0.013042
 33,0.01179612,-0.01018224,0.00128392,0.00488495,-0.00421659,-0.2663626
 5,-0.19117468,0.16501915,0.25533419,-0.00030103,0.00294652,-0.00118550
 ,-0.00107248,-0.00015638,-0.00067754,0.00114367,-0.00044583,-0.0005490
 5,-0.00004597,0.00007172,-0.00023012,-0.02786169,-0.02056013,0.0114406
 9,0.00549742,-0.00111439,0.00695035,-0.14917666,-0.16007115,0.13198773
 ,0.17181674,0.17932964,0.00025985,-0.00118550,0.00259642,0.00092574,-0
 .00067754,-0.00035648,0.00021535,-0.00030654,-0.00004333,-0.00116286,-
 0.00047262,-0.00056088,0.02404965,0.01144059,-0.01718149,-0.00474526,0
 .00695035,0.00093823,0.12876722,0.13198784,-0.12109301,-0.14830969,-0.
 14773657,0.13570054\\0.00000145,0.00000215,-0.00000185,0.00000334,0.00
 000220,-0.00000190,-0.00000088,0.00000198,-0.00000182,-0.00000090,0.00
 000208,-0.00000170,0.00000013,-0.00000153,0.00000138,0.00000322,-0.000
 00301,0.00000258,-0.00000268,-0.00000270,0.00000232,-0.00000368,-0.000
 00117,0.00000101\\\@


 WERE I TO AWAIT PERFECTION, MY BOOK WOULD NEVER BE FINISHED.
                                    -- HISTORY OF CHINESE WRITING

                                       TAI T'UNG, 13TH CENTURY
 Job cpu time:       0 days  0 hours  0 minutes 41.8 seconds.
 File lengths (MBytes):  RWF=     10 Int=      0 D2E=      0 Chk=      2 Scr=      1
 Normal termination of Gaussian 09 at Thu Nov 19 17:05:51 2020.
