 Entering Gaussian System, Link 0=g09
 Initial command:
 /opt/g09/l1.exe "/scratch/data/florian/gaussian_scratch/Gau-30985.inp" -scrdir="/scratch/data/florian/gaussian_scratch/"
 Entering Link 1 = /opt/g09/l1.exe PID=     30987.
  
 Copyright (c) 1988,1990,1992,1993,1995,1998,2003,2009,2013,
            Gaussian, Inc.  All Rights Reserved.
  
 This is part of the Gaussian(R) 09 program.  It is based on
 the Gaussian(R) 03 system (copyright 2003, Gaussian, Inc.),
 the Gaussian(R) 98 system (copyright 1998, Gaussian, Inc.),
 the Gaussian(R) 94 system (copyright 1995, Gaussian, Inc.),
 the Gaussian 92(TM) system (copyright 1992, Gaussian, Inc.),
 the Gaussian 90(TM) system (copyright 1990, Gaussian, Inc.),
 the Gaussian 88(TM) system (copyright 1988, Gaussian, Inc.),
 the Gaussian 86(TM) system (copyright 1986, Carnegie Mellon
 University), and the Gaussian 82(TM) system (copyright 1983,
 Carnegie Mellon University). Gaussian is a federally registered
 trademark of Gaussian, Inc.
  
 This software contains proprietary and confidential information,
 including trade secrets, belonging to Gaussian, Inc.
  
 This software is provided under written license and may be
 used, copied, transmitted, or stored only in accord with that
 written license.
  
 The following legend is applicable only to US Government
 contracts under FAR:
  
                    RESTRICTED RIGHTS LEGEND
  
 Use, reproduction and disclosure by the US Government is
 subject to restrictions as set forth in subparagraphs (a)
 and (c) of the Commercial Computer Software - Restricted
 Rights clause in FAR 52.227-19.
  
 Gaussian, Inc.
 340 Quinnipiac St., Bldg. 40, Wallingford CT 06492
  
  
 ---------------------------------------------------------------
 Warning -- This program may not be used in any manner that
 competes with the business of Gaussian, Inc. or will provide
 assistance to any competitor of Gaussian, Inc.  The licensee
 of this program is prohibited from giving any competitor of
 Gaussian, Inc. access to this program.  By using this program,
 the user acknowledges that Gaussian, Inc. is engaged in the
 business of creating and licensing software in the field of
 computational chemistry and represents and warrants to the
 licensee that it is not a competitor of Gaussian, Inc. and that
 it will not use this program in any manner prohibited above.
 ---------------------------------------------------------------
  

 Cite this work as:
 Gaussian 09, Revision D.01,
 M. J. Frisch, G. W. Trucks, H. B. Schlegel, G. E. Scuseria, 
 M. A. Robb, J. R. Cheeseman, G. Scalmani, V. Barone, B. Mennucci, 
 G. A. Petersson, H. Nakatsuji, M. Caricato, X. Li, H. P. Hratchian, 
 A. F. Izmaylov, J. Bloino, G. Zheng, J. L. Sonnenberg, M. Hada, 
 M. Ehara, K. Toyota, R. Fukuda, J. Hasegawa, M. Ishida, T. Nakajima, 
 Y. Honda, O. Kitao, H. Nakai, T. Vreven, J. A. Montgomery, Jr., 
 J. E. Peralta, F. Ogliaro, M. Bearpark, J. J. Heyd, E. Brothers, 
 K. N. Kudin, V. N. Staroverov, T. Keith, R. Kobayashi, J. Normand, 
 K. Raghavachari, A. Rendell, J. C. Burant, S. S. Iyengar, J. Tomasi, 
 M. Cossi, N. Rega, J. M. Millam, M. Klene, J. E. Knox, J. B. Cross, 
 V. Bakken, C. Adamo, J. Jaramillo, R. Gomperts, R. E. Stratmann, 
 O. Yazyev, A. J. Austin, R. Cammi, C. Pomelli, J. W. Ochterski, 
 R. L. Martin, K. Morokuma, V. G. Zakrzewski, G. A. Voth, 
 P. Salvador, J. J. Dannenberg, S. Dapprich, A. D. Daniels, 
 O. Farkas, J. B. Foresman, J. V. Ortiz, J. Cioslowski, 
 and D. J. Fox, Gaussian, Inc., Wallingford CT, 2013.
 
 ******************************************
 Gaussian 09:  ES64L-G09RevD.01 24-Apr-2013
                15-Oct-2020 
 ******************************************
 %chk=im1h_init.chk
 %mem=4GB
 %NPROCSHARED=3
 Will use up to    3 processors via shared memory.
 ---------------------------------------------------------
 # b3lyp/cc-pvdz opt=(tight, maxcycle=200) density=current
 ---------------------------------------------------------
 1/6=200,7=10,14=-1,18=20,19=15,26=3,38=1/1,3;
 2/9=110,12=2,17=6,18=5,40=1/2;
 3/5=16,11=2,16=1,25=1,30=1,71=1,74=-5/1,2,3;
 4//1;
 5/5=2,38=5/2;
 6/7=2,8=2,9=2,10=2,22=-1,28=1/1;
 7//1,2,3,16;
 1/6=200,7=10,14=-1,18=20,19=15,26=3/3(2);
 2/9=110/2;
 99//99;
 2/9=110/2;
 3/5=16,11=2,16=1,25=1,30=1,71=1,74=-5/1,2,3;
 4/5=5,16=3,69=1/1;
 5/5=2,38=5/2;
 7//1,2,3,16;
 1/6=200,7=10,14=-1,18=20,19=15,26=3/3(-5);
 2/9=110/2;
 6/7=2,8=2,9=2,10=2,19=2,22=-1,28=1/1;
 99/9=1/99;
 ----------------------------------------------------------------------
 im1h opt of inital coordinates generqated with gv, sorted as in charmm
  rtf file->needed for gaupy sorting atomnames
 ----------------------------------------------------------------------
 Symbolic Z-matrix:
 Charge =  1 Multiplicity = 1
 C                    -3.99081   0.60128  -0.00033 
 N                    -2.58639   0.1671   -0.00001 
 C                    -2.14666  -1.1534    0. 
 C                    -0.74491  -1.1534    0. 
 N                    -0.32091   0.21739   0. 
 H                     0.70365   0.57388  -0.00003 
 C                    -1.47797   1.00884  -0.0001 
 H                    -4.07639   1.5324    0.51984 
 H                    -4.32591   0.72413  -1.00905 
 H                    -4.59237  -0.13667   0.48798 
 H                    -2.84825  -1.98664   0.0001 
 H                    -0.10054  -2.02611   0.00003 
 H                    -1.58689   2.09262  -0.00025 
 

 GradGradGradGradGradGradGradGradGradGradGradGradGradGradGradGradGradGrad
 Berny optimization.
 Initialization pass.
                           ----------------------------
                           !    Initial Parameters    !
                           ! (Angstroms and Degrees)  !
 --------------------------                            --------------------------
 ! Name  Definition              Value          Derivative Info.                !
 --------------------------------------------------------------------------------
 ! R1    R(1,2)                  1.47           estimate D2E/DX2                !
 ! R2    R(1,8)                  1.07           estimate D2E/DX2                !
 ! R3    R(1,9)                  1.07           estimate D2E/DX2                !
 ! R4    R(1,10)                 1.07           estimate D2E/DX2                !
 ! R5    R(2,3)                  1.3918         estimate D2E/DX2                !
 ! R6    R(2,7)                  1.3918         estimate D2E/DX2                !
 ! R7    R(3,4)                  1.4017         estimate D2E/DX2                !
 ! R8    R(3,11)                 1.0893         estimate D2E/DX2                !
 ! R9    R(4,5)                  1.4349         estimate D2E/DX2                !
 ! R10   R(4,12)                 1.0848         estimate D2E/DX2                !
 ! R11   R(5,6)                  1.0848         estimate D2E/DX2                !
 ! R12   R(5,7)                  1.4018         estimate D2E/DX2                !
 ! R13   R(7,13)                 1.0892         estimate D2E/DX2                !
 ! A1    A(2,1,8)              109.4712         estimate D2E/DX2                !
 ! A2    A(2,1,9)              109.4712         estimate D2E/DX2                !
 ! A3    A(2,1,10)             109.4712         estimate D2E/DX2                !
 ! A4    A(8,1,9)              109.4713         estimate D2E/DX2                !
 ! A5    A(8,1,10)             109.4712         estimate D2E/DX2                !
 ! A6    A(9,1,10)             109.4712         estimate D2E/DX2                !
 ! A7    A(1,2,3)              125.5966         estimate D2E/DX2                !
 ! A8    A(1,2,7)              125.6078         estimate D2E/DX2                !
 ! A9    A(3,2,7)              108.7956         estimate D2E/DX2                !
 ! A10   A(2,3,4)              108.4177         estimate D2E/DX2                !
 ! A11   A(2,3,11)             121.4847         estimate D2E/DX2                !
 ! A12   A(4,3,11)             130.0976         estimate D2E/DX2                !
 ! A13   A(3,4,5)              107.1873         estimate D2E/DX2                !
 ! A14   A(3,4,12)             126.4408         estimate D2E/DX2                !
 ! A15   A(5,4,12)             126.372          estimate D2E/DX2                !
 ! A16   A(4,5,6)              126.3724         estimate D2E/DX2                !
 ! A17   A(4,5,7)              107.1858         estimate D2E/DX2                !
 ! A18   A(6,5,7)              126.4419         estimate D2E/DX2                !
 ! A19   A(2,7,5)              108.4137         estimate D2E/DX2                !
 ! A20   A(2,7,13)             121.4742         estimate D2E/DX2                !
 ! A21   A(5,7,13)             130.1121         estimate D2E/DX2                !
 ! D1    D(8,1,2,3)            148.9638         estimate D2E/DX2                !
 ! D2    D(8,1,2,7)            -31.0586         estimate D2E/DX2                !
 ! D3    D(9,1,2,3)            -91.0362         estimate D2E/DX2                !
 ! D4    D(9,1,2,7)             88.9414         estimate D2E/DX2                !
 ! D5    D(10,1,2,3)            28.9638         estimate D2E/DX2                !
 ! D6    D(10,1,2,7)          -151.0586         estimate D2E/DX2                !
 ! D7    D(1,2,3,4)            179.9846         estimate D2E/DX2                !
 ! D8    D(1,2,3,11)            -0.0211         estimate D2E/DX2                !
 ! D9    D(7,2,3,4)              0.0039         estimate D2E/DX2                !
 ! D10   D(7,2,3,11)           179.9982         estimate D2E/DX2                !
 ! D11   D(1,2,7,5)           -179.9874         estimate D2E/DX2                !
 ! D12   D(1,2,7,13)             0.0117         estimate D2E/DX2                !
 ! D13   D(3,2,7,5)             -0.0067         estimate D2E/DX2                !
 ! D14   D(3,2,7,13)           179.9924         estimate D2E/DX2                !
 ! D15   D(2,3,4,5)              0.0004         estimate D2E/DX2                !
 ! D16   D(2,3,4,12)           179.9987         estimate D2E/DX2                !
 ! D17   D(11,3,4,5)          -179.9933         estimate D2E/DX2                !
 ! D18   D(11,3,4,12)            0.0051         estimate D2E/DX2                !
 ! D19   D(3,4,5,6)           -179.9984         estimate D2E/DX2                !
 ! D20   D(3,4,5,7)             -0.0044         estimate D2E/DX2                !
 ! D21   D(12,4,5,6)             0.0033         estimate D2E/DX2                !
 ! D22   D(12,4,5,7)           179.9972         estimate D2E/DX2                !
 ! D23   D(4,5,7,2)              0.0069         estimate D2E/DX2                !
 ! D24   D(4,5,7,13)          -179.9922         estimate D2E/DX2                !
 ! D25   D(6,5,7,2)           -179.9992         estimate D2E/DX2                !
 ! D26   D(6,5,7,13)             0.0017         estimate D2E/DX2                !
 --------------------------------------------------------------------------------
 Trust Radius=3.00D-01 FncErr=1.00D-07 GrdErr=1.00D-06
 Number of steps in this run=    100 maximum allowed number of steps=    100.
 GradGradGradGradGradGradGradGradGradGradGradGradGradGradGradGradGradGrad

                          Input orientation:                          
 ---------------------------------------------------------------------
 Center     Atomic      Atomic             Coordinates (Angstroms)
 Number     Number       Type             X           Y           Z
 ---------------------------------------------------------------------
      1          6           0       -3.990805    0.601277   -0.000333
      2          7           0       -2.586386    0.167103   -0.000009
      3          6           0       -2.146659   -1.153405    0.000000
      4          6           0       -0.744909   -1.153405    0.000000
      5          7           0       -0.320911    0.217391    0.000000
      6          1           0        0.703652    0.573883   -0.000025
      7          6           0       -1.477968    1.008844   -0.000104
      8          1           0       -4.076390    1.532405    0.519837
      9          1           0       -4.325914    0.724129   -1.009050
     10          1           0       -4.592375   -0.136670    0.487978
     11          1           0       -2.848247   -1.986638    0.000098
     12          1           0       -0.100536   -2.026111    0.000025
     13          1           0       -1.586890    2.092616   -0.000251
 ---------------------------------------------------------------------
                    Distance matrix (angstroms):
                    1          2          3          4          5
     1  C    0.000000
     2  N    1.470000   0.000000
     3  C    2.545542   1.391798   0.000000
     4  C    3.689817   2.266005   1.401750   0.000000
     5  N    3.689917   2.266033   2.283076   1.434871   0.000000
     6  H    4.694537   3.315090   3.332836   2.254297   1.084811
     7  C    2.545675   1.391804   2.263287   2.283133   1.401848
     8  H    1.070000   2.086720   3.347785   4.310750   4.012868
     9  H    1.070000   2.086720   3.048355   4.167363   4.161131
    10  H    1.070000   2.086720   2.693213   4.009347   4.313802
    11  H    2.828912   2.169602   1.089267   2.262368   3.353382
    12  H    4.694397   3.315062   2.224463   1.084819   2.254300
    13  H    2.828940   2.169468   3.293933   3.353444   2.262559
                    6          7          8          9         10
     6  H    0.000000
     7  C    2.224558   0.000000
     8  H    4.902838   2.701157   0.000000
     9  H    5.131982   3.034771   1.747303   0.000000
    10  H    5.365718   3.354096   1.747303   1.747303   0.000000
    11  H    4.378613   3.294021   3.763260   3.248097   2.588897
    12  H    2.721523   3.332907   5.361031   5.141582   4.897418
    13  H    2.748296   1.089232   2.604215   3.223769   3.773728
                   11         12         13
    11  H    0.000000
    12  H    2.747995   0.000000
    13  H    4.269817   4.378717   0.000000
 Stoichiometry    C4H7N2(1+)
 Framework group  C1[X(C4H7N2)]
 Deg. of freedom    33
 Full point group                 C1      NOp   1
 Largest Abelian subgroup         C1      NOp   1
 Largest concise Abelian subgroup C1      NOp   1
                         Standard orientation:                         
 ---------------------------------------------------------------------
 Center     Atomic      Atomic             Coordinates (Angstroms)
 Number     Number       Type             X           Y           Z
 ---------------------------------------------------------------------
      1          6           0       -2.140640   -0.026981    0.000243
      2          7           0       -0.670934    0.002409   -0.000082
      3          6           0        0.116407    1.150101   -0.000091
      4          6           0        1.463631    0.762944   -0.000091
      5          7           0        1.492528   -0.671637   -0.000091
      6          1           0        2.378775   -1.297242   -0.000066
      7          6           0        0.161883   -1.112729    0.000013
      8          1           0       -2.480069   -0.898251   -0.519928
      9          1           0       -2.496645   -0.052498    1.008959
     10          1           0       -2.514992    0.848412   -0.488068
     11          1           0       -0.327755    2.144698   -0.000189
     12          1           0        2.323976    1.423730   -0.000116
     13          1           0       -0.242135   -2.124260    0.000160
 ---------------------------------------------------------------------
 Rotational constants (GHZ):      8.4169786      3.3637382      2.4389806
 Standard basis: CC-pVDZ (5D, 7F)
 There are   125 symmetry adapted cartesian basis functions of A   symmetry.
 There are   119 symmetry adapted basis functions of A   symmetry.
   119 basis functions,   247 primitive gaussians,   125 cartesian basis functions
    22 alpha electrons       22 beta electrons
       nuclear repulsion energy       231.1570432767 Hartrees.
 NAtoms=   13 NActive=   13 NUniq=   13 SFac= 1.00D+00 NAtFMM=   60 NAOKFM=F Big=F
 Integral buffers will be    131072 words long.
 Raffenetti 2 integral format.
 Two-electron integral symmetry is turned on.
 One-electron integrals computed using PRISM.
 NBasis=   119 RedAO= T EigKep=  1.73D-03  NBF=   119
 NBsUse=   119 1.00D-06 EigRej= -1.00D+00 NBFU=   119
 ExpMin= 1.22D-01 ExpMax= 9.05D+03 ExpMxC= 3.09D+02 IAcc=1 IRadAn=         1 AccDes= 0.00D+00
 Harris functional with IExCor=  402 and IRadAn=       1 diagonalized for initial guess.
 HarFok:  IExCor=  402 AccDes= 0.00D+00 IRadAn=         1 IDoV= 1 UseB2=F ITyADJ=14
 ICtDFT=  3500011 ScaDFX=  1.000000  1.000000  1.000000  1.000000
 FoFCou: FMM=F IPFlag=           0 FMFlag=      100000 FMFlg1=           0
         NFxFlg=           0 DoJE=T BraDBF=F KetDBF=T FulRan=T
         wScrn=  0.000000 ICntrl=     500 IOpCl=  0 I1Cent=   200000004 NGrid=           0
         NMat0=    1 NMatS0=      1 NMatT0=    0 NMatD0=    1 NMtDS0=    0 NMtDT0=    0
 Petite list used in FoFCou.
 Keep R1 ints in memory in canonical form, NReq=26560622.
 Requested convergence on RMS density matrix=1.00D-08 within 128 cycles.
 Requested convergence on MAX density matrix=1.00D-06.
 Requested convergence on             energy=1.00D-06.
 No special actions if energy rises.
 Integral accuracy reduced to 1.0D-05 until final iterations.
 Initial convergence to 1.0D-05 achieved.  Increase integral accuracy.
 SCF Done:  E(RB3LYP) =  -265.909082231     A.U. after   14 cycles
            NFock= 14  Conv=0.68D-08     -V/T= 2.0093

 **********************************************************************

            Population analysis using the SCF density.

 **********************************************************************

 Orbital symmetries:
       Occupied  (A) (A) (A) (A) (A) (A) (A) (A) (A) (A) (A) (A)
                 (A) (A) (A) (A) (A) (A) (A) (A) (A) (A)
       Virtual   (A) (A) (A) (A) (A) (A) (A) (A) (A) (A) (A) (A)
                 (A) (A) (A) (A) (A) (A) (A) (A) (A) (A) (A) (A)
                 (A) (A) (A) (A) (A) (A) (A) (A) (A) (A) (A) (A)
                 (A) (A) (A) (A) (A) (A) (A) (A) (A) (A) (A) (A)
                 (A) (A) (A) (A) (A) (A) (A) (A) (A) (A) (A) (A)
                 (A) (A) (A) (A) (A) (A) (A) (A) (A) (A) (A) (A)
                 (A) (A) (A) (A) (A) (A) (A) (A) (A) (A) (A) (A)
                 (A) (A) (A) (A) (A) (A) (A) (A) (A) (A) (A) (A)
                 (A)
 The electronic state is 1-A.
 Alpha  occ. eigenvalues --  -14.61757 -14.61340 -10.48462 -10.43287 -10.42659
 Alpha  occ. eigenvalues --  -10.40363  -1.22515  -1.11606  -0.96262  -0.92286
 Alpha  occ. eigenvalues --   -0.82836  -0.79170  -0.76232  -0.67618  -0.66434
 Alpha  occ. eigenvalues --   -0.65220  -0.64415  -0.62110  -0.59813  -0.58621
 Alpha  occ. eigenvalues --   -0.50118  -0.44144
 Alpha virt. eigenvalues --   -0.21856  -0.16961  -0.13846  -0.10102  -0.07351
 Alpha virt. eigenvalues --   -0.06366  -0.05460  -0.03801  -0.03177  -0.01797
 Alpha virt. eigenvalues --    0.00509   0.01966   0.09230   0.10196   0.17301
 Alpha virt. eigenvalues --    0.18164   0.21922   0.22217   0.25627   0.26405
 Alpha virt. eigenvalues --    0.29971   0.30256   0.31842   0.32209   0.38337
 Alpha virt. eigenvalues --    0.41723   0.43662   0.46118   0.46773   0.48356
 Alpha virt. eigenvalues --    0.48625   0.51625   0.54572   0.58173   0.59328
 Alpha virt. eigenvalues --    0.62209   0.64829   0.66399   0.71451   0.77670
 Alpha virt. eigenvalues --    0.80325   0.83370   0.84064   0.85541   0.87207
 Alpha virt. eigenvalues --    0.88582   0.89496   0.94840   1.03223   1.11017
 Alpha virt. eigenvalues --    1.17433   1.21745   1.24565   1.26624   1.30855
 Alpha virt. eigenvalues --    1.32059   1.32497   1.35834   1.38276   1.42697
 Alpha virt. eigenvalues --    1.44576   1.45714   1.46308   1.47329   1.48945
 Alpha virt. eigenvalues --    1.50292   1.53502   1.55469   1.57725   1.60192
 Alpha virt. eigenvalues --    1.64175   1.66933   1.72191   1.73332   1.81605
 Alpha virt. eigenvalues --    1.82541   1.87652   1.89988   1.93467   1.97534
 Alpha virt. eigenvalues --    2.00414   2.07245   2.10878   2.15305   2.19029
 Alpha virt. eigenvalues --    2.25048   2.27886   2.29648   2.30975   2.33984
 Alpha virt. eigenvalues --    2.35945   2.40952   2.45194   2.48601   2.62687
 Alpha virt. eigenvalues --    2.94445   3.10835
          Condensed to atoms (all electrons):
               1          2          3          4          5          6
     1  C    4.423402   0.349592  -0.041758   0.007142   0.002460  -0.000083
     2  N    0.349592   6.107265   0.430652  -0.045221  -0.042640   0.002429
     3  C   -0.041758   0.430652   4.718270   0.554850  -0.036545   0.006239
     4  C    0.007142  -0.045221   0.554850   4.716828   0.400984  -0.025447
     5  N    0.002460  -0.042640  -0.036545   0.400984   6.029531   0.366739
     6  H   -0.000083   0.002429   0.006239  -0.025447   0.366739   0.470695
     7  C   -0.041430   0.463940  -0.114711  -0.099163   0.442763  -0.024252
     8  H    0.398538  -0.013328   0.003924  -0.000529   0.000247  -0.000009
     9  H    0.402972  -0.018740  -0.000160  -0.000145   0.000041   0.000004
    10  H    0.401138  -0.013298  -0.002904   0.000636  -0.000158   0.000008
    11  H   -0.003412  -0.023804   0.408072  -0.031727   0.002559  -0.000068
    12  H   -0.000067   0.002461  -0.027606   0.407591  -0.023269  -0.002995
    13  H   -0.000500  -0.020957   0.003267   0.002218  -0.020115  -0.001514
               7          8          9         10         11         12
     1  C   -0.041430   0.398538   0.402972   0.401138  -0.003412  -0.000067
     2  N    0.463940  -0.013328  -0.018740  -0.013298  -0.023804   0.002461
     3  C   -0.114711   0.003924  -0.000160  -0.002904   0.408072  -0.027606
     4  C   -0.099163  -0.000529  -0.000145   0.000636  -0.031727   0.407591
     5  N    0.442763   0.000247   0.000041  -0.000158   0.002559  -0.023269
     6  H   -0.024252  -0.000009   0.000004   0.000008  -0.000068  -0.002995
     7  C    4.710933  -0.003125  -0.001788   0.003500   0.005167   0.003814
     8  H   -0.003125   0.570975  -0.018887  -0.016288   0.000146   0.000008
     9  H   -0.001788  -0.018887   0.563872  -0.019279   0.000247   0.000004
    10  H    0.003500  -0.016288  -0.019279   0.562458   0.001842  -0.000006
    11  H    0.005167   0.000146   0.000247   0.001842   0.563971  -0.002524
    12  H    0.003814   0.000008   0.000004  -0.000006  -0.002524   0.556238
    13  H    0.399915   0.002059   0.000147  -0.000024  -0.000195  -0.000122
              13
     1  C   -0.000500
     2  N   -0.020957
     3  C    0.003267
     4  C    0.002218
     5  N   -0.020115
     6  H   -0.001514
     7  C    0.399915
     8  H    0.002059
     9  H    0.000147
    10  H   -0.000024
    11  H   -0.000195
    12  H   -0.000122
    13  H    0.526521
 Mulliken charges:
               1
     1  C    0.102006
     2  N   -0.178351
     3  C    0.098409
     4  C    0.111981
     5  N   -0.122597
     6  H    0.208254
     7  C    0.254438
     8  H    0.076271
     9  H    0.091714
    10  H    0.082376
    11  H    0.079726
    12  H    0.086473
    13  H    0.109300
 Sum of Mulliken charges =   1.00000
 Mulliken charges with hydrogens summed into heavy atoms:
               1
     1  C    0.352367
     2  N   -0.178351
     3  C    0.178135
     4  C    0.198455
     5  N    0.085657
     7  C    0.363738
 Electronic spatial extent (au):  <R**2>=            508.0698
 Charge=              1.0000 electrons
 Dipole moment (field-independent basis, Debye):
    X=              0.7349    Y=             -1.2425    Z=              0.0042  Tot=              1.4436
 Quadrupole moment (field-independent basis, Debye-Ang):
   XX=            -14.3101   YY=            -22.3303   ZZ=            -35.9409
   XY=             -2.0346   XZ=              0.0289   YZ=             -0.0129
 Traceless Quadrupole moment (field-independent basis, Debye-Ang):
   XX=              9.8836   YY=              1.8635   ZZ=            -11.7471
   XY=             -2.0346   XZ=              0.0289   YZ=             -0.0129
 Octapole moment (field-independent basis, Debye-Ang**2):
  XXX=             10.8504  YYY=             -4.9776  ZZZ=              0.7299  XYY=              5.6607
  XXY=             -5.7017  XXZ=             -0.1300  XZZ=             -3.2565  YZZ=             -1.4096
  YYZ=             -0.6900  XYZ=              0.0382
 Hexadecapole moment (field-independent basis, Debye-Ang**3):
 XXXX=           -298.1082 YYYY=           -143.2732 ZZZZ=            -40.2587 XXXY=            -17.0907
 XXXZ=              0.4506 YYYX=             -7.1890 YYYZ=              0.0521 ZZZX=             -1.8879
 ZZZY=             -0.0411 XXYY=            -71.2034 XXZZ=            -75.4965 YYZZ=            -41.3298
 XXYZ=             -0.1393 YYXZ=              1.8933 ZZXY=             -1.6102
 N-N= 2.311570432767D+02 E-N=-1.069691258475D+03  KE= 2.634672657759D+02
 Calling FoFJK, ICntrl=      2127 FMM=F ISym2X=0 I1Cent= 0 IOpClX= 0 NMat=1 NMatS=1 NMatT=0.
 ***** Axes restored to original set *****
 -------------------------------------------------------------------
 Center     Atomic                   Forces (Hartrees/Bohr)
 Number     Number              X              Y              Z
 -------------------------------------------------------------------
      1        6           0.017231258   -0.002096657   -0.002001412
      2        7           0.049429437    0.011814016    0.002676508
      3        6           0.029611303    0.014311053   -0.000417319
      4        6          -0.025987519    0.031075695   -0.000405302
      5        7          -0.024715609    0.000144636   -0.000479631
      6        1          -0.045692354   -0.013898214    0.000095471
      7        6          -0.000894113   -0.049920481    0.000107080
      8        1          -0.001006392    0.016658830    0.010156592
      9        1          -0.006532262    0.001912293   -0.020050510
     10        1          -0.008893147   -0.014027042    0.009856867
     11        1           0.002450366    0.000903752    0.000117284
     12        1           0.006945275    0.004188638    0.000132096
     13        1           0.008053758   -0.001066518    0.000212276
 -------------------------------------------------------------------
 Cartesian Forces:  Max     0.049920481 RMS     0.017791530

 GradGradGradGradGradGradGradGradGradGradGradGradGradGradGradGradGradGrad
 Berny optimization.
 FormGI is forming the generalized inverse of G from B-inverse, IUseBI=4.
 Internal  Forces:  Max     0.055570459 RMS     0.014946442
 Search for a local minimum.
 Step number   1 out of a maximum of  100
 All quantities printed in internal units (Hartrees-Bohrs-Radians)
 Mixed Optimization -- RFO/linear search
 Second derivative matrix not updated -- first step.
 ITU=  0
     Eigenvalues ---    0.00766   0.01312   0.01422   0.01601   0.01668
     Eigenvalues ---    0.01728   0.01832   0.01956   0.07537   0.07537
     Eigenvalues ---    0.16000   0.16000   0.16000   0.16000   0.16000
     Eigenvalues ---    0.16000   0.16000   0.22000   0.23193   0.25000
     Eigenvalues ---    0.34897   0.34902   0.35418   0.35419   0.35740
     Eigenvalues ---    0.37230   0.37230   0.37230   0.37864   0.40324
     Eigenvalues ---    0.44281   0.45706   0.46621
 RFO step:  Lambda=-3.13420681D-02 EMin= 7.65814526D-03
 Linear search not attempted -- first point.
 Iteration  1 RMS(Cart)=  0.05303015 RMS(Int)=  0.00080330
 Iteration  2 RMS(Cart)=  0.00101919 RMS(Int)=  0.00020182
 Iteration  3 RMS(Cart)=  0.00000040 RMS(Int)=  0.00020182
 Variable       Old X    -DE/DX   Delta X   Delta X   Delta X     New X
                                 (Linear)    (Quad)   (Total)
    R1        2.77790  -0.00004   0.00000  -0.00010  -0.00010   2.77779
    R2        2.02201   0.01952   0.00000   0.04835   0.04835   2.07035
    R3        2.02201   0.02117   0.00000   0.05244   0.05244   2.07445
    R4        2.02201   0.01917   0.00000   0.04750   0.04750   2.06950
    R5        2.63012  -0.01316   0.00000  -0.02302  -0.02350   2.60662
    R6        2.63013  -0.04966   0.00000  -0.10007  -0.10021   2.52992
    R7        2.64892  -0.03944   0.00000  -0.07817  -0.07833   2.57059
    R8        2.05842  -0.00227   0.00000  -0.00597  -0.00597   2.05245
    R9        2.71151  -0.04335   0.00000  -0.10136  -0.10097   2.61054
   R10        2.05001   0.00076   0.00000   0.00196   0.00196   2.05197
   R11        2.05000  -0.04772   0.00000  -0.12378  -0.12378   1.92621
   R12        2.64911  -0.05557   0.00000  -0.11872  -0.11833   2.53078
   R13        2.05835  -0.00187   0.00000  -0.00491  -0.00491   2.05344
    A1        1.91063  -0.00045   0.00000  -0.00238  -0.00243   1.90820
    A2        1.91063   0.00060   0.00000   0.00480   0.00480   1.91543
    A3        1.91063  -0.00327   0.00000  -0.01873  -0.01877   1.89186
    A4        1.91063   0.00092   0.00000   0.00808   0.00806   1.91870
    A5        1.91063   0.00086   0.00000   0.00119   0.00110   1.91173
    A6        1.91063   0.00134   0.00000   0.00705   0.00705   1.91768
    A7        2.19207   0.00196   0.00000   0.00510   0.00537   2.19745
    A8        2.19227  -0.00229   0.00000  -0.00997  -0.00970   2.18256
    A9        1.89884   0.00033   0.00000   0.00487   0.00431   1.90316
   A10        1.89225  -0.00615   0.00000  -0.01269  -0.01326   1.87898
   A11        2.12031   0.00440   0.00000   0.01329   0.01358   2.13388
   A12        2.27063   0.00175   0.00000  -0.00060  -0.00032   2.27032
   A13        1.87077  -0.00646   0.00000  -0.02228  -0.02208   1.84870
   A14        2.20681   0.01151   0.00000   0.05439   0.05429   2.26109
   A15        2.20561  -0.00505   0.00000  -0.03211  -0.03221   2.17339
   A16        2.20561  -0.00541   0.00000  -0.01425  -0.01460   2.19102
   A17        1.87074   0.01470   0.00000   0.04872   0.04941   1.92016
   A18        2.20683  -0.00928   0.00000  -0.03447  -0.03482   2.17201
   A19        1.89218  -0.00242   0.00000  -0.01862  -0.01839   1.87378
   A20        2.12012   0.00935   0.00000   0.05184   0.05173   2.17185
   A21        2.27088  -0.00693   0.00000  -0.03323  -0.03334   2.23755
    D1        2.59991  -0.00043   0.00000   0.00155   0.00158   2.60149
    D2       -0.54208  -0.00075   0.00000  -0.00561  -0.00558  -0.54765
    D3       -1.58888   0.00078   0.00000   0.01292   0.01292  -1.57596
    D4        1.55232   0.00046   0.00000   0.00576   0.00577   1.55809
    D5        0.50551   0.00079   0.00000   0.01302   0.01297   0.51849
    D6       -2.63647   0.00047   0.00000   0.00586   0.00582  -2.63065
    D7        3.14132  -0.00040   0.00000  -0.00840  -0.00847   3.13286
    D8       -0.00037  -0.00032   0.00000  -0.00685  -0.00690  -0.00727
    D9        0.00007  -0.00012   0.00000  -0.00225  -0.00227  -0.00220
   D10        3.14156  -0.00004   0.00000  -0.00070  -0.00070   3.14086
   D11       -3.14137   0.00042   0.00000   0.00877   0.00873  -3.13264
   D12        0.00020   0.00035   0.00000   0.00746   0.00739   0.00759
   D13       -0.00012   0.00014   0.00000   0.00262   0.00260   0.00248
   D14        3.14146   0.00008   0.00000   0.00132   0.00125  -3.14047
   D15        0.00001   0.00006   0.00000   0.00101   0.00101   0.00102
   D16        3.14157  -0.00002   0.00000  -0.00043  -0.00049   3.14108
   D17       -3.14148  -0.00003   0.00000  -0.00071  -0.00072   3.14099
   D18        0.00009  -0.00011   0.00000  -0.00216  -0.00221  -0.00213
   D19       -3.14156  -0.00008   0.00000  -0.00154  -0.00157   3.14005
   D20       -0.00008   0.00003   0.00000   0.00057   0.00058   0.00050
   D21        0.00006   0.00000   0.00000  -0.00010  -0.00017  -0.00011
   D22        3.14154   0.00010   0.00000   0.00202   0.00198  -3.13966
   D23        0.00012  -0.00010   0.00000  -0.00195  -0.00197  -0.00185
   D24       -3.14146  -0.00003   0.00000  -0.00050  -0.00056   3.14117
   D25       -3.14158   0.00000   0.00000   0.00017   0.00014  -3.14144
   D26        0.00003   0.00008   0.00000   0.00162   0.00156   0.00159
         Item               Value     Threshold  Converged?
 Maximum Force            0.055570     0.000015     NO 
 RMS     Force            0.014946     0.000010     NO 
 Maximum Displacement     0.279967     0.000060     NO 
 RMS     Displacement     0.053196     0.000040     NO 
 Predicted change in Energy=-1.689878D-02
 GradGradGradGradGradGradGradGradGradGradGradGradGradGradGradGradGradGrad

                          Input orientation:                          
 ---------------------------------------------------------------------
 Center     Atomic      Atomic             Coordinates (Angstroms)
 Number     Number       Type             X           Y           Z
 ---------------------------------------------------------------------
      1          6           0       -3.959149    0.609262   -0.004766
      2          7           0       -2.558765    0.162485    0.002650
      3          6           0       -2.127702   -1.147791    0.001498
      4          6           0       -0.767469   -1.134669   -0.001311
      5          7           0       -0.401321    0.197364   -0.000449
      6          1           0        0.555500    0.548766   -0.000730
      7          6           0       -1.493144    0.972898    0.003389
      8          1           0       -4.038506    1.562642    0.529157
      9          1           0       -4.304417    0.730090   -1.039778
     10          1           0       -4.565916   -0.147093    0.504231
     11          1           0       -2.818947   -1.985535    0.001417
     12          1           0       -0.067988   -1.965216   -0.002496
     13          1           0       -1.546514    2.058219    0.005354
 ---------------------------------------------------------------------
                    Distance matrix (angstroms):
                    1          2          3          4          5
     1  C    0.000000
     2  N    1.469945   0.000000
     3  C    2.538006   1.379363   0.000000
     4  C    3.637049   2.211643   1.360299   0.000000
     5  N    3.581594   2.157728   2.188569   1.381440   0.000000
     6  H    4.515056   3.138132   3.174568   2.141075   1.019309
     7  C    2.492685   1.338775   2.213592   2.229005   1.339233
     8  H    1.095585   2.104110   3.357982   4.272770   3.920916
     9  H    1.097751   2.110955   3.057578   4.131070   4.074084
    10  H    1.095133   2.091907   2.683100   3.957155   4.209181
    11  H    2.834267   2.163721   1.086110   2.220932   3.257294
    12  H    4.665734   3.275838   2.215992   1.085857   2.188120
    13  H    2.814319   2.149062   3.258266   3.286562   2.185013
                    6          7          8          9         10
     6  H    0.000000
     7  C    2.092091   0.000000
     8  H    4.734302   2.665164   0.000000
     9  H    4.973056   3.008390   1.795942   0.000000
    10  H    5.193082   3.308648   1.789407   1.794936   0.000000
    11  H    4.220140   3.241926   3.788852   3.265782   2.585458
    12  H    2.590145   3.265520   5.337926   5.127179   4.877879
    13  H    2.587846   1.086634   2.594223   3.234541   3.772144
                   11         12         13
    11  H    0.000000
    12  H    2.751037   0.000000
    13  H    4.239228   4.286506   0.000000
 Stoichiometry    C4H7N2(1+)
 Framework group  C1[X(C4H7N2)]
 Deg. of freedom    33
 Full point group                 C1      NOp   1
 Largest Abelian subgroup         C1      NOp   1
 Largest concise Abelian subgroup C1      NOp   1
                         Standard orientation:                         
 ---------------------------------------------------------------------
 Center     Atomic      Atomic             Coordinates (Angstroms)
 Number     Number       Type             X           Y           Z
 ---------------------------------------------------------------------
      1          6           0       -2.108609    0.000491    0.003568
      2          7           0       -0.638703    0.008962   -0.002936
      3          6           0        0.163761    1.130877   -0.002182
      4          6           0        1.458085    0.712400    0.001772
      5          7           0        1.410007   -0.668203    0.001987
      6          1           0        2.218347   -1.289150    0.003272
      7          6           0        0.136490   -1.082547   -0.002315
      8          1           0       -2.468548   -0.886185   -0.529870
      9          1           0       -2.474851   -0.010957    1.038360
     10          1           0       -2.461675    0.903055   -0.506374
     11          1           0       -0.245960    2.136741   -0.003164
     12          1           0        2.373561    1.296340    0.003061
     13          1           0       -0.238356   -2.102480   -0.003697
 ---------------------------------------------------------------------
 Rotational constants (GHZ):      8.8014987      3.5183339      2.5549465
 Standard basis: CC-pVDZ (5D, 7F)
 There are   125 symmetry adapted cartesian basis functions of A   symmetry.
 There are   119 symmetry adapted basis functions of A   symmetry.
   119 basis functions,   247 primitive gaussians,   125 cartesian basis functions
    22 alpha electrons       22 beta electrons
       nuclear repulsion energy       236.4546446088 Hartrees.
 NAtoms=   13 NActive=   13 NUniq=   13 SFac= 1.00D+00 NAtFMM=   60 NAOKFM=F Big=F
 Integral buffers will be    131072 words long.
 Raffenetti 2 integral format.
 Two-electron integral symmetry is turned on.
 One-electron integrals computed using PRISM.
 NBasis=   119 RedAO= T EigKep=  1.40D-03  NBF=   119
 NBsUse=   119 1.00D-06 EigRej= -1.00D+00 NBFU=   119
 Initial guess from the checkpoint file:  "im1h_init.chk"
 B after Tr=     0.000000    0.000000    0.000000
         Rot=    0.999941    0.000214    0.000166    0.010826 Ang=   1.24 deg.
 ExpMin= 1.22D-01 ExpMax= 9.05D+03 ExpMxC= 3.09D+02 IAcc=1 IRadAn=         1 AccDes= 0.00D+00
 Harris functional with IExCor=  402 and IRadAn=       1 diagonalized for initial guess.
 HarFok:  IExCor=  402 AccDes= 0.00D+00 IRadAn=         1 IDoV= 1 UseB2=F ITyADJ=14
 ICtDFT=  3500011 ScaDFX=  1.000000  1.000000  1.000000  1.000000
 FoFCou: FMM=F IPFlag=           0 FMFlag=      100000 FMFlg1=           0
         NFxFlg=           0 DoJE=T BraDBF=F KetDBF=T FulRan=T
         wScrn=  0.000000 ICntrl=     500 IOpCl=  0 I1Cent=   200000004 NGrid=           0
         NMat0=    1 NMatS0=      1 NMatT0=    0 NMatD0=    1 NMtDS0=    0 NMtDT0=    0
 Petite list used in FoFCou.
 Keep R1 ints in memory in canonical form, NReq=26560622.
 Requested convergence on RMS density matrix=1.00D-08 within 128 cycles.
 Requested convergence on MAX density matrix=1.00D-06.
 Requested convergence on             energy=1.00D-06.
 No special actions if energy rises.
 Integral accuracy reduced to 1.0D-05 until final iterations.
 Initial convergence to 1.0D-05 achieved.  Increase integral accuracy.
 SCF Done:  E(RB3LYP) =  -265.925480228     A.U. after   12 cycles
            NFock= 12  Conv=0.61D-08     -V/T= 2.0072
 Calling FoFJK, ICntrl=      2127 FMM=F ISym2X=0 I1Cent= 0 IOpClX= 0 NMat=1 NMatS=1 NMatT=0.
 ***** Axes restored to original set *****
 -------------------------------------------------------------------
 Center     Atomic                   Forces (Hartrees/Bohr)
 Number     Number              X              Y              Z
 -------------------------------------------------------------------
      1        6          -0.000148184   -0.000705074   -0.001191010
      2        7          -0.002097317    0.004675569    0.001776862
      3        6          -0.006192617   -0.004605047   -0.000682682
      4        6           0.002200375    0.000754278   -0.000303035
      5        7           0.008477294    0.001747682   -0.000295040
      6        1          -0.001937875   -0.000413117    0.000166330
      7        6          -0.004358481   -0.004781128   -0.000286693
      8        1          -0.000132123    0.000574789    0.000564022
      9        1          -0.000615872   -0.000266553   -0.000766603
     10        1          -0.001042214   -0.000039544    0.000660843
     11        1          -0.000258630    0.000609486    0.000090344
     12        1           0.002374345    0.002611364    0.000122310
     13        1           0.003731299   -0.000162707    0.000144354
 -------------------------------------------------------------------
 Cartesian Forces:  Max     0.008477294 RMS     0.002521151

 GradGradGradGradGradGradGradGradGradGradGradGradGradGradGradGradGradGrad
 Berny optimization.
 Using GEDIIS/GDIIS optimizer.
 FormGI is forming the generalized inverse of G from B-inverse, IUseBI=4.
 Internal  Forces:  Max     0.007641298 RMS     0.001792265
 Search for a local minimum.
 Step number   2 out of a maximum of  100
 All quantities printed in internal units (Hartrees-Bohrs-Radians)
 Mixed Optimization -- RFO/linear search
 Update second derivatives using D2CorX and points    1    2
 DE= -1.64D-02 DEPred=-1.69D-02 R= 9.70D-01
 TightC=F SS=  1.41D+00  RLast= 2.79D-01 DXNew= 5.0454D-01 8.3699D-01
 Trust test= 9.70D-01 RLast= 2.79D-01 DXMaxT set to 5.05D-01
 ITU=  1  0
 Use linear search instead of GDIIS.
     Eigenvalues ---    0.00766   0.01314   0.01422   0.01590   0.01693
     Eigenvalues ---    0.01734   0.01830   0.01956   0.07520   0.07673
     Eigenvalues ---    0.15484   0.16000   0.16000   0.16000   0.16000
     Eigenvalues ---    0.16000   0.16039   0.22328   0.23352   0.25018
     Eigenvalues ---    0.34882   0.34900   0.35196   0.35434   0.35815
     Eigenvalues ---    0.37061   0.37230   0.37231   0.37475   0.39769
     Eigenvalues ---    0.44125   0.46575   0.51331
 RFO step:  Lambda=-8.25747406D-04 EMin= 7.65758400D-03
 Quartic linear search produced a step of -0.00168.
 Iteration  1 RMS(Cart)=  0.01652309 RMS(Int)=  0.00017366
 Iteration  2 RMS(Cart)=  0.00019575 RMS(Int)=  0.00003246
 Iteration  3 RMS(Cart)=  0.00000002 RMS(Int)=  0.00003246
 Variable       Old X    -DE/DX   Delta X   Delta X   Delta X     New X
                                 (Linear)    (Quad)   (Total)
    R1        2.77779   0.00172   0.00000   0.00478   0.00478   2.78258
    R2        2.07035   0.00079  -0.00008   0.00330   0.00322   2.07357
    R3        2.07445   0.00089  -0.00009   0.00367   0.00358   2.07803
    R4        2.06950   0.00091  -0.00008   0.00361   0.00353   2.07303
    R5        2.60662   0.00326   0.00004   0.00703   0.00709   2.61371
    R6        2.52992   0.00154   0.00017   0.00045   0.00065   2.53056
    R7        2.57059   0.00764   0.00013   0.01569   0.01581   2.58640
    R8        2.05245  -0.00030   0.00001  -0.00102  -0.00101   2.05144
    R9        2.61054  -0.00151   0.00017  -0.00653  -0.00638   2.60416
   R10        2.05197  -0.00047   0.00000  -0.00127  -0.00127   2.05070
   R11        1.92621  -0.00196   0.00021  -0.00858  -0.00837   1.91784
   R12        2.53078   0.00067   0.00020  -0.00241  -0.00221   2.52857
   R13        2.05344  -0.00035   0.00001  -0.00111  -0.00110   2.05234
    A1        1.90820  -0.00018   0.00000  -0.00145  -0.00145   1.90675
    A2        1.91543   0.00026  -0.00001   0.00233   0.00232   1.91775
    A3        1.89186   0.00096   0.00003   0.00519   0.00522   1.89708
    A4        1.91870   0.00007  -0.00001   0.00125   0.00124   1.91993
    A5        1.91173  -0.00061   0.00000  -0.00504  -0.00504   1.90669
    A6        1.91768  -0.00049  -0.00001  -0.00226  -0.00228   1.91541
    A7        2.19745   0.00023  -0.00001   0.00080   0.00070   2.19814
    A8        2.18256   0.00202   0.00002   0.00758   0.00751   2.19007
    A9        1.90316  -0.00225  -0.00001  -0.00851  -0.00853   1.89462
   A10        1.87898  -0.00177   0.00002  -0.00563  -0.00559   1.87339
   A11        2.13388   0.00028  -0.00002  -0.00076  -0.00079   2.13309
   A12        2.27032   0.00149   0.00000   0.00639   0.00639   2.27670
   A13        1.84870   0.00173   0.00004   0.00817   0.00818   1.85688
   A14        2.26109   0.00272  -0.00009   0.01927   0.01919   2.28028
   A15        2.17339  -0.00445   0.00005  -0.02744  -0.02737   2.14602
   A16        2.19102   0.00124   0.00002   0.00691   0.00694   2.19796
   A17        1.92016  -0.00194  -0.00008  -0.00999  -0.01009   1.91007
   A18        2.17201   0.00070   0.00006   0.00307   0.00314   2.17515
   A19        1.87378   0.00423   0.00003   0.01598   0.01604   1.88982
   A20        2.17185   0.00170  -0.00009   0.01679   0.01669   2.18854
   A21        2.23755  -0.00594   0.00006  -0.03277  -0.03273   2.20482
    D1        2.60149   0.00024   0.00000   0.03460   0.03463   2.63612
    D2       -0.54765  -0.00010   0.00001   0.01053   0.01050  -0.53715
    D3       -1.57596   0.00038  -0.00002   0.03668   0.03669  -1.53927
    D4        1.55809   0.00003  -0.00001   0.01260   0.01256   1.57065
    D5        0.51849   0.00052  -0.00002   0.03847   0.03848   0.55697
    D6       -2.63065   0.00017  -0.00001   0.01439   0.01436  -2.61630
    D7        3.13286  -0.00023   0.00001  -0.01608  -0.01599   3.11686
    D8       -0.00727  -0.00026   0.00001  -0.01740  -0.01733  -0.02460
    D9       -0.00220   0.00005   0.00000   0.00472   0.00467   0.00248
   D10        3.14086   0.00003   0.00000   0.00340   0.00334  -3.13899
   D11       -3.13264   0.00023  -0.00001   0.01528   0.01524  -3.11740
   D12        0.00759   0.00029  -0.00001   0.01894   0.01898   0.02657
   D13        0.00248  -0.00005   0.00000  -0.00533  -0.00534  -0.00285
   D14       -3.14047   0.00000   0.00000  -0.00167  -0.00160   3.14111
   D15        0.00102  -0.00002   0.00000  -0.00216  -0.00216  -0.00114
   D16        3.14108  -0.00010   0.00000  -0.00531  -0.00535   3.13574
   D17        3.14099   0.00001   0.00000  -0.00070  -0.00068   3.14031
   D18       -0.00213  -0.00007   0.00000  -0.00385  -0.00387  -0.00600
   D19        3.14005  -0.00009   0.00000  -0.00446  -0.00441   3.13564
   D20        0.00050  -0.00002   0.00000  -0.00111  -0.00109  -0.00059
   D21       -0.00011  -0.00002   0.00000  -0.00155  -0.00158  -0.00169
   D22       -3.13966   0.00005   0.00000   0.00179   0.00175  -3.13792
   D23       -0.00185   0.00004   0.00000   0.00400   0.00401   0.00215
   D24        3.14117  -0.00002   0.00000   0.00011   0.00018   3.14134
   D25       -3.14144   0.00011   0.00000   0.00730   0.00727  -3.13417
   D26        0.00159   0.00005   0.00000   0.00340   0.00344   0.00503
         Item               Value     Threshold  Converged?
 Maximum Force            0.007641     0.000015     NO 
 RMS     Force            0.001792     0.000010     NO 
 Maximum Displacement     0.053802     0.000060     NO 
 RMS     Displacement     0.016528     0.000040     NO 
 Predicted change in Energy=-4.163657D-04
 GradGradGradGradGradGradGradGradGradGradGradGradGradGradGradGradGradGrad

                          Input orientation:                          
 ---------------------------------------------------------------------
 Center     Atomic      Atomic             Coordinates (Angstroms)
 Number     Number       Type             X           Y           Z
 ---------------------------------------------------------------------
      1          6           0       -3.967517    0.610293   -0.005980
      2          7           0       -2.565350    0.161104    0.012515
      3          6           0       -2.133496   -1.152801   -0.000247
      4          6           0       -0.765006   -1.132279   -0.007303
      5          7           0       -0.395951    0.195427   -0.000163
      6          1           0        0.555275    0.549180    0.002147
      7          6           0       -1.492382    0.962333    0.010103
      8          1           0       -4.044883    1.575844    0.509544
      9          1           0       -4.314684    0.709544   -1.044657
     10          1           0       -4.581184   -0.130977    0.520656
     11          1           0       -2.825294   -1.989391   -0.003387
     12          1           0       -0.045823   -1.944912   -0.012759
     13          1           0       -1.518043    2.048055    0.017697
 ---------------------------------------------------------------------
                    Distance matrix (angstroms):
                    1          2          3          4          5
     1  C    0.000000
     2  N    1.472477   0.000000
     3  C    2.544046   1.383115   0.000000
     4  C    3.645907   2.216860   1.368663   0.000000
     5  N    3.595585   2.169707   2.199269   1.378062   0.000000
     6  H    4.523212   3.144679   3.182174   2.137880   1.014878
     7  C    2.500097   1.339117   2.210187   2.217381   1.338062
     8  H    1.097287   2.106549   3.370281   4.284700   3.934470
     9  H    1.099648   2.116264   3.052328   4.131420   4.088001
    10  H    1.097002   2.099311   2.703079   3.980523   4.230126
    11  H    2.839549   2.166207   1.085577   2.231467   3.267285
    12  H    4.680684   3.283893   2.232930   1.085185   2.168825
    13  H    2.840360   2.158116   3.259538   3.268366   2.166019
                    6          7          8          9         10
     6  H    0.000000
     7  C    2.088936   0.000000
     8  H    4.740563   2.672283   0.000000
     9  H    4.983775   3.023543   1.799669   0.000000
    10  H    5.207175   3.316125   1.789129   1.796581   0.000000
    11  H    4.227602   3.238752   3.802814   3.253733   2.609879
    12  H    2.565547   3.247326   5.353597   5.131679   4.913694
    13  H    2.558420   1.086052   2.617215   3.277409   3.792622
                   11         12         13
    11  H    0.000000
    12  H    2.779843   0.000000
    13  H    4.243857   4.255837   0.000000
 Stoichiometry    C4H7N2(1+)
 Framework group  C1[X(C4H7N2)]
 Deg. of freedom    33
 Full point group                 C1      NOp   1
 Largest Abelian subgroup         C1      NOp   1
 Largest concise Abelian subgroup C1      NOp   1
                         Standard orientation:                         
 ---------------------------------------------------------------------
 Center     Atomic      Atomic             Coordinates (Angstroms)
 Number     Number       Type             X           Y           Z
 ---------------------------------------------------------------------
      1          6           0       -2.116095   -0.010209    0.008060
      2          7           0       -0.643843    0.006991   -0.011080
      3          6           0        0.155070    1.136016   -0.004191
      4          6           0        1.457105    0.714272    0.004452
      5          7           0        1.419681   -0.663282    0.004121
      6          1           0        2.224945   -1.280961    0.004552
      7          6           0        0.146286   -1.074154   -0.003634
      8          1           0       -2.473991   -0.912920   -0.502881
      9          1           0       -2.476705    0.002071    1.046826
     10          1           0       -2.485023    0.876063   -0.522814
     11          1           0       -0.260327    2.138971   -0.005841
     12          1           0        2.383346    1.279691    0.006767
     13          1           0       -0.197311   -2.104418   -0.006015
 ---------------------------------------------------------------------
 Rotational constants (GHZ):      8.8281079      3.4928057      2.5439198
 Standard basis: CC-pVDZ (5D, 7F)
 There are   125 symmetry adapted cartesian basis functions of A   symmetry.
 There are   119 symmetry adapted basis functions of A   symmetry.
   119 basis functions,   247 primitive gaussians,   125 cartesian basis functions
    22 alpha electrons       22 beta electrons
       nuclear repulsion energy       236.1311040640 Hartrees.
 NAtoms=   13 NActive=   13 NUniq=   13 SFac= 1.00D+00 NAtFMM=   60 NAOKFM=F Big=F
 Integral buffers will be    131072 words long.
 Raffenetti 2 integral format.
 Two-electron integral symmetry is turned on.
 One-electron integrals computed using PRISM.
 NBasis=   119 RedAO= T EigKep=  1.43D-03  NBF=   119
 NBsUse=   119 1.00D-06 EigRej= -1.00D+00 NBFU=   119
 Initial guess from the checkpoint file:  "im1h_init.chk"
 B after Tr=     0.000000    0.000000    0.000000
         Rot=    0.999996    0.001123   -0.000149   -0.002495 Ang=   0.31 deg.
 ExpMin= 1.22D-01 ExpMax= 9.05D+03 ExpMxC= 3.09D+02 IAcc=1 IRadAn=         1 AccDes= 0.00D+00
 Harris functional with IExCor=  402 and IRadAn=       1 diagonalized for initial guess.
 HarFok:  IExCor=  402 AccDes= 0.00D+00 IRadAn=         1 IDoV= 1 UseB2=F ITyADJ=14
 ICtDFT=  3500011 ScaDFX=  1.000000  1.000000  1.000000  1.000000
 FoFCou: FMM=F IPFlag=           0 FMFlag=      100000 FMFlg1=           0
         NFxFlg=           0 DoJE=T BraDBF=F KetDBF=T FulRan=T
         wScrn=  0.000000 ICntrl=     500 IOpCl=  0 I1Cent=   200000004 NGrid=           0
         NMat0=    1 NMatS0=      1 NMatT0=    0 NMatD0=    1 NMtDS0=    0 NMtDT0=    0
 Petite list used in FoFCou.
 Keep R1 ints in memory in canonical form, NReq=26560622.
 Requested convergence on RMS density matrix=1.00D-08 within 128 cycles.
 Requested convergence on MAX density matrix=1.00D-06.
 Requested convergence on             energy=1.00D-06.
 No special actions if energy rises.
 Integral accuracy reduced to 1.0D-05 until final iterations.
 Initial convergence to 1.0D-05 achieved.  Increase integral accuracy.
 SCF Done:  E(RB3LYP) =  -265.925884565     A.U. after   11 cycles
            NFock= 11  Conv=0.48D-08     -V/T= 2.0073
 Calling FoFJK, ICntrl=      2127 FMM=F ISym2X=0 I1Cent= 0 IOpClX= 0 NMat=1 NMatS=1 NMatT=0.
 ***** Axes restored to original set *****
 -------------------------------------------------------------------
 Center     Atomic                   Forces (Hartrees/Bohr)
 Number     Number              X              Y              Z
 -------------------------------------------------------------------
      1        6          -0.000225476    0.000044887   -0.000476567
      2        7           0.001576000    0.001820202    0.000274876
      3        6           0.001966292   -0.001654089   -0.000367536
      4        6          -0.002041638   -0.002904508   -0.000070212
      5        7          -0.001487342   -0.000714050   -0.000321657
      6        1           0.001510342    0.000743334    0.000063825
      7        6          -0.003396870    0.002332039    0.000411219
      8        1           0.000170145   -0.000227503   -0.000254665
      9        1           0.000291600   -0.000314531    0.000338297
     10        1           0.000337475    0.000203054    0.000157310
     11        1          -0.000084643    0.000090415    0.000107007
     12        1           0.000524128    0.000325922    0.000031932
     13        1           0.000859987    0.000254827    0.000106169
 -------------------------------------------------------------------
 Cartesian Forces:  Max     0.003396870 RMS     0.001134054

 GradGradGradGradGradGradGradGradGradGradGradGradGradGradGradGradGradGrad
 Berny optimization.
 Using GEDIIS/GDIIS optimizer.
 FormGI is forming the generalized inverse of G from B-inverse, IUseBI=4.
 Internal  Forces:  Max     0.002173513 RMS     0.000708173
 Search for a local minimum.
 Step number   3 out of a maximum of  100
 All quantities printed in internal units (Hartrees-Bohrs-Radians)
 Mixed Optimization -- En-DIIS/RFO-DIIS
 Update second derivatives using D2CorX and points    1    2    3
 DE= -4.04D-04 DEPred=-4.16D-04 R= 9.71D-01
 TightC=F SS=  1.41D+00  RLast= 9.78D-02 DXNew= 8.4853D-01 2.9344D-01
 Trust test= 9.71D-01 RLast= 9.78D-02 DXMaxT set to 5.05D-01
 ITU=  1  1  0
 Use linear search instead of GDIIS.
     Eigenvalues ---    0.00711   0.01304   0.01421   0.01584   0.01701
     Eigenvalues ---    0.01732   0.01825   0.01957   0.07497   0.07640
     Eigenvalues ---    0.12595   0.16000   0.16000   0.16000   0.16000
     Eigenvalues ---    0.16017   0.16089   0.22677   0.24926   0.26393
     Eigenvalues ---    0.34892   0.34909   0.35424   0.35811   0.36166
     Eigenvalues ---    0.37219   0.37230   0.37295   0.38866   0.40306
     Eigenvalues ---    0.44452   0.48278   0.54896
 RFO step:  Lambda=-1.32471066D-04 EMin= 7.11046712D-03
 Quartic linear search produced a step of -0.01928.
 Iteration  1 RMS(Cart)=  0.01284112 RMS(Int)=  0.00013689
 Iteration  2 RMS(Cart)=  0.00014723 RMS(Int)=  0.00000571
 Iteration  3 RMS(Cart)=  0.00000002 RMS(Int)=  0.00000571
 Variable       Old X    -DE/DX   Delta X   Delta X   Delta X     New X
                                 (Linear)    (Quad)   (Total)
    R1        2.78258  -0.00063  -0.00009  -0.00090  -0.00099   2.78159
    R2        2.07357  -0.00033  -0.00006  -0.00022  -0.00028   2.07329
    R3        2.07803  -0.00044  -0.00007  -0.00043  -0.00050   2.07754
    R4        2.07303  -0.00025  -0.00007   0.00004  -0.00002   2.07301
    R5        2.61371   0.00217  -0.00014   0.00564   0.00551   2.61922
    R6        2.53056  -0.00134  -0.00001  -0.00280  -0.00282   2.52775
    R7        2.58640  -0.00182  -0.00030  -0.00144  -0.00175   2.58465
    R8        2.05144  -0.00002   0.00002  -0.00023  -0.00021   2.05123
    R9        2.60416   0.00173   0.00012   0.00291   0.00303   2.60719
   R10        2.05070   0.00010   0.00002   0.00007   0.00009   2.05079
   R11        1.91784   0.00167   0.00016   0.00293   0.00309   1.92093
   R12        2.52857   0.00133   0.00004   0.00236   0.00240   2.53097
   R13        2.05234   0.00023   0.00002   0.00046   0.00048   2.05282
    A1        1.90675  -0.00010   0.00003  -0.00085  -0.00082   1.90593
    A2        1.91775  -0.00027  -0.00004  -0.00116  -0.00120   1.91654
    A3        1.89708  -0.00021  -0.00010  -0.00053  -0.00063   1.89645
    A4        1.91993   0.00022  -0.00002   0.00175   0.00172   1.92166
    A5        1.90669   0.00011   0.00010  -0.00038  -0.00029   1.90640
    A6        1.91541   0.00025   0.00004   0.00114   0.00119   1.91660
    A7        2.19814  -0.00079  -0.00001  -0.00305  -0.00307   2.19508
    A8        2.19007  -0.00037  -0.00014  -0.00027  -0.00042   2.18965
    A9        1.89462   0.00116   0.00016   0.00314   0.00330   1.89792
   A10        1.87339   0.00007   0.00011  -0.00086  -0.00075   1.87264
   A11        2.13309  -0.00017   0.00002  -0.00096  -0.00095   2.13214
   A12        2.27670   0.00009  -0.00012   0.00182   0.00170   2.27840
   A13        1.85688  -0.00076  -0.00016  -0.00205  -0.00220   1.85467
   A14        2.28028   0.00100  -0.00037   0.00896   0.00859   2.28887
   A15        2.14602  -0.00024   0.00053  -0.00692  -0.00639   2.13963
   A16        2.19796  -0.00040  -0.00013  -0.00053  -0.00067   2.19729
   A17        1.91007   0.00113   0.00019   0.00371   0.00390   1.91397
   A18        2.17515  -0.00073  -0.00006  -0.00321  -0.00328   2.17187
   A19        1.88982  -0.00161  -0.00031  -0.00393  -0.00425   1.88558
   A20        2.18854   0.00169  -0.00032   0.01178   0.01146   2.20001
   A21        2.20482  -0.00008   0.00063  -0.00785  -0.00721   2.19760
    D1        2.63612   0.00020  -0.00067   0.03374   0.03307   2.66919
    D2       -0.53715   0.00016  -0.00020   0.02561   0.02541  -0.51174
    D3       -1.53927   0.00024  -0.00071   0.03464   0.03393  -1.50534
    D4        1.57065   0.00020  -0.00024   0.02651   0.02627   1.59692
    D5        0.55697   0.00025  -0.00074   0.03501   0.03427   0.59124
    D6       -2.61630   0.00020  -0.00028   0.02688   0.02661  -2.58969
    D7        3.11686  -0.00013   0.00031  -0.01008  -0.00978   3.10709
    D8       -0.02460  -0.00012   0.00033  -0.00998  -0.00966  -0.03426
    D9        0.00248  -0.00007  -0.00009  -0.00306  -0.00315  -0.00068
   D10       -3.13899  -0.00006  -0.00006  -0.00296  -0.00303   3.14116
   D11       -3.11740   0.00017  -0.00029   0.01175   0.01146  -3.10594
   D12        0.02657   0.00012  -0.00037   0.00992   0.00955   0.03612
   D13       -0.00285   0.00010   0.00010   0.00471   0.00481   0.00195
   D14        3.14111   0.00006   0.00003   0.00289   0.00290  -3.13917
   D15       -0.00114   0.00002   0.00004   0.00028   0.00031  -0.00082
   D16        3.13574   0.00000   0.00010  -0.00137  -0.00128   3.13446
   D17        3.14031   0.00001   0.00001   0.00017   0.00018   3.14049
   D18       -0.00600  -0.00001   0.00007  -0.00148  -0.00141  -0.00741
   D19        3.13564  -0.00004   0.00009  -0.00324  -0.00316   3.13248
   D20       -0.00059   0.00004   0.00002   0.00263   0.00265   0.00206
   D21       -0.00169  -0.00002   0.00003  -0.00180  -0.00178  -0.00347
   D22       -3.13792   0.00006  -0.00003   0.00407   0.00402  -3.13389
   D23        0.00215  -0.00009  -0.00008  -0.00458  -0.00466  -0.00251
   D24        3.14134  -0.00004   0.00000  -0.00270  -0.00272   3.13862
   D25       -3.13417  -0.00001  -0.00014   0.00118   0.00104  -3.13313
   D26        0.00503   0.00004  -0.00007   0.00306   0.00298   0.00800
         Item               Value     Threshold  Converged?
 Maximum Force            0.002174     0.000015     NO 
 RMS     Force            0.000708     0.000010     NO 
 Maximum Displacement     0.051317     0.000060     NO 
 RMS     Displacement     0.012844     0.000040     NO 
 Predicted change in Energy=-6.685420D-05
 GradGradGradGradGradGradGradGradGradGradGradGradGradGradGradGradGradGrad

                          Input orientation:                          
 ---------------------------------------------------------------------
 Center     Atomic      Atomic             Coordinates (Angstroms)
 Number     Number       Type             X           Y           Z
 ---------------------------------------------------------------------
      1          6           0       -3.967520    0.609733   -0.007816
      2          7           0       -2.565351    0.162579    0.017018
      3          6           0       -2.134603   -1.154670   -0.002702
      4          6           0       -0.767042   -1.135151   -0.012998
      5          7           0       -0.399463    0.194587   -0.000367
      6          1           0        0.553022    0.549620    0.003936
      7          6           0       -1.494988    0.964803    0.019613
      8          1           0       -4.043332    1.587192    0.484668
      9          1           0       -4.317055    0.682389   -1.047620
     10          1           0       -4.578021   -0.118959    0.539618
     11          1           0       -2.828387   -1.989457   -0.007975
     12          1           0       -0.041493   -1.942130   -0.022805
     13          1           0       -1.510105    2.050885    0.035595
 ---------------------------------------------------------------------
                    Distance matrix (angstroms):
                    1          2          3          4          5
     1  C    0.000000
     2  N    1.471952   0.000000
     3  C    2.544156   1.386030   0.000000
     4  C    3.645231   2.217864   1.367739   0.000000
     5  N    3.592135   2.166194   2.198001   1.379665   0.000000
     6  H    4.520957   3.142327   3.182448   2.140399   1.016511
     7  C    2.498048   1.337627   2.213994   2.222785   1.339331
     8  H    1.097139   2.105385   3.376179   4.288694   3.930952
     9  H    1.099385   2.114740   3.038048   4.120253   4.084387
    10  H    1.096990   2.098384   2.708709   3.982662   4.224955
    11  H    2.837853   2.168196   1.085465   2.231370   3.266463
    12  H    4.682511   3.286525   2.236427   1.085234   2.166611
    13  H    2.849157   2.163235   3.266044   3.271899   2.163483
                    6          7          8          9         10
     6  H    0.000000
     7  C    2.089729   0.000000
     8  H    4.736468   2.664151   0.000000
     9  H    4.984079   3.030315   1.800417   0.000000
    10  H    5.202072   3.309084   1.788816   1.797105   0.000000
    11  H    4.228591   3.241353   3.809358   3.230441   2.619130
    12  H    2.561831   3.250339   5.359884   5.120427   4.921418
    13  H    2.551723   1.086305   2.614176   3.305315   3.791355
                   11         12         13
    11  H    0.000000
    12  H    2.787335   0.000000
    13  H    4.250192   4.254926   0.000000
 Stoichiometry    C4H7N2(1+)
 Framework group  C1[X(C4H7N2)]
 Deg. of freedom    33
 Full point group                 C1      NOp   1
 Largest Abelian subgroup         C1      NOp   1
 Largest concise Abelian subgroup C1      NOp   1
                         Standard orientation:                         
 ---------------------------------------------------------------------
 Center     Atomic      Atomic             Coordinates (Angstroms)
 Number     Number       Type             X           Y           Z
 ---------------------------------------------------------------------
      1          6           0       -2.114943   -0.008178    0.011722
      2          7           0       -0.643292    0.005541   -0.014696
      3          6           0        0.156612    1.137430   -0.006979
      4          6           0        1.457669    0.715784    0.006218
      5          7           0        1.416948   -0.663280    0.007293
      6          1           0        2.222461   -1.283315    0.008343
      7          6           0        0.143048   -1.076522   -0.007340
      8          1           0       -2.475988   -0.924696   -0.471347
      9          1           0       -2.469342    0.035729    1.051491
     10          1           0       -2.484068    0.862625   -0.544006
     11          1           0       -0.260280    2.139637   -0.011228
     12          1           0        2.388858    1.273107    0.009585
     13          1           0       -0.191548   -2.109999   -0.012751
 ---------------------------------------------------------------------
 Rotational constants (GHZ):      8.8056427      3.4970183      2.5444293
 Standard basis: CC-pVDZ (5D, 7F)
 There are   125 symmetry adapted cartesian basis functions of A   symmetry.
 There are   119 symmetry adapted basis functions of A   symmetry.
   119 basis functions,   247 primitive gaussians,   125 cartesian basis functions
    22 alpha electrons       22 beta electrons
       nuclear repulsion energy       236.0851317711 Hartrees.
 NAtoms=   13 NActive=   13 NUniq=   13 SFac= 1.00D+00 NAtFMM=   60 NAOKFM=F Big=F
 Integral buffers will be    131072 words long.
 Raffenetti 2 integral format.
 Two-electron integral symmetry is turned on.
 One-electron integrals computed using PRISM.
 NBasis=   119 RedAO= T EigKep=  1.42D-03  NBF=   119
 NBsUse=   119 1.00D-06 EigRej= -1.00D+00 NBFU=   119
 Initial guess from the checkpoint file:  "im1h_init.chk"
 B after Tr=     0.000000    0.000000    0.000000
         Rot=    0.999999    0.001335   -0.000093    0.000393 Ang=   0.16 deg.
 ExpMin= 1.22D-01 ExpMax= 9.05D+03 ExpMxC= 3.09D+02 IAcc=1 IRadAn=         1 AccDes= 0.00D+00
 Harris functional with IExCor=  402 and IRadAn=       1 diagonalized for initial guess.
 HarFok:  IExCor=  402 AccDes= 0.00D+00 IRadAn=         1 IDoV= 1 UseB2=F ITyADJ=14
 ICtDFT=  3500011 ScaDFX=  1.000000  1.000000  1.000000  1.000000
 FoFCou: FMM=F IPFlag=           0 FMFlag=      100000 FMFlg1=           0
         NFxFlg=           0 DoJE=T BraDBF=F KetDBF=T FulRan=T
         wScrn=  0.000000 ICntrl=     500 IOpCl=  0 I1Cent=   200000004 NGrid=           0
         NMat0=    1 NMatS0=      1 NMatT0=    0 NMatD0=    1 NMtDS0=    0 NMtDT0=    0
 Petite list used in FoFCou.
 Keep R1 ints in memory in canonical form, NReq=26560622.
 Requested convergence on RMS density matrix=1.00D-08 within 128 cycles.
 Requested convergence on MAX density matrix=1.00D-06.
 Requested convergence on             energy=1.00D-06.
 No special actions if energy rises.
 Integral accuracy reduced to 1.0D-05 until final iterations.
 Initial convergence to 1.0D-05 achieved.  Increase integral accuracy.
 SCF Done:  E(RB3LYP) =  -265.925969093     A.U. after   10 cycles
            NFock= 10  Conv=0.62D-08     -V/T= 2.0074
 Calling FoFJK, ICntrl=      2127 FMM=F ISym2X=0 I1Cent= 0 IOpClX= 0 NMat=1 NMatS=1 NMatT=0.
 ***** Axes restored to original set *****
 -------------------------------------------------------------------
 Center     Atomic                   Forces (Hartrees/Bohr)
 Number     Number              X              Y              Z
 -------------------------------------------------------------------
      1        6          -0.000228666   -0.000189488    0.000058540
      2        7           0.000064709    0.000212483    0.000365154
      3        6           0.001161084    0.000177902   -0.000537333
      4        6          -0.001075818   -0.000348605   -0.000035473
      5        7           0.000264620    0.000065766    0.000241035
      6        1           0.000236711    0.000055255    0.000083165
      7        6          -0.000421289    0.000043547   -0.000178316
      8        1           0.000069828   -0.000117826   -0.000346396
      9        1           0.000130250   -0.000175439    0.000258426
     10        1           0.000117078    0.000230092    0.000109329
     11        1          -0.000189833    0.000097513    0.000029951
     12        1          -0.000009738   -0.000079772   -0.000032404
     13        1          -0.000118937    0.000028573   -0.000015677
 -------------------------------------------------------------------
 Cartesian Forces:  Max     0.001161084 RMS     0.000321599

 GradGradGradGradGradGradGradGradGradGradGradGradGradGradGradGradGradGrad
 Berny optimization.
 Using GEDIIS/GDIIS optimizer.
 FormGI is forming the generalized inverse of G from B-inverse, IUseBI=4.
 Internal  Forces:  Max     0.000907937 RMS     0.000200787
 Search for a local minimum.
 Step number   4 out of a maximum of  100
 All quantities printed in internal units (Hartrees-Bohrs-Radians)
 Mixed Optimization -- En-DIIS/RFO-DIIS
 Swapping is turned off.
 Update second derivatives using D2CorX and points    1    2    3    4
 DE= -8.45D-05 DEPred=-6.69D-05 R= 1.26D+00
 TightC=F SS=  1.41D+00  RLast= 8.03D-02 DXNew= 8.4853D-01 2.4094D-01
 Trust test= 1.26D+00 RLast= 8.03D-02 DXMaxT set to 5.05D-01
 ITU=  1  1  1  0
     Eigenvalues ---    0.00376   0.01292   0.01418   0.01645   0.01704
     Eigenvalues ---    0.01734   0.01951   0.02000   0.07518   0.07669
     Eigenvalues ---    0.14414   0.15999   0.16000   0.16000   0.16006
     Eigenvalues ---    0.16081   0.16473   0.22685   0.24767   0.27953
     Eigenvalues ---    0.34900   0.34913   0.35425   0.35820   0.36364
     Eigenvalues ---    0.37219   0.37231   0.37395   0.38556   0.40983
     Eigenvalues ---    0.44433   0.49421   0.53526
 En-DIIS/RFO-DIIS IScMMF=        0 using points:     4    3
 RFO step:  Lambda=-8.46360927D-06.
 DidBck=F Rises=F RFO-DIIS coefs:    1.37105   -0.37105
 Iteration  1 RMS(Cart)=  0.02269888 RMS(Int)=  0.00046555
 Iteration  2 RMS(Cart)=  0.00048152 RMS(Int)=  0.00001716
 Iteration  3 RMS(Cart)=  0.00000017 RMS(Int)=  0.00001716
 Variable       Old X    -DE/DX   Delta X   Delta X   Delta X     New X
                                 (Linear)    (Quad)   (Total)
    R1        2.78159  -0.00016  -0.00037  -0.00026  -0.00063   2.78096
    R2        2.07329  -0.00026  -0.00010  -0.00054  -0.00065   2.07265
    R3        2.07754  -0.00030  -0.00018  -0.00064  -0.00083   2.07671
    R4        2.07301  -0.00016  -0.00001  -0.00011  -0.00012   2.07289
    R5        2.61922  -0.00016   0.00204   0.00084   0.00289   2.62211
    R6        2.52775  -0.00027  -0.00104  -0.00136  -0.00240   2.52535
    R7        2.58465  -0.00091  -0.00065  -0.00169  -0.00234   2.58232
    R8        2.05123   0.00005  -0.00008   0.00003  -0.00005   2.05118
    R9        2.60719   0.00039   0.00112   0.00093   0.00205   2.60924
   R10        2.05079   0.00005   0.00003   0.00009   0.00012   2.05092
   R11        1.92093   0.00024   0.00115   0.00016   0.00130   1.92223
   R12        2.53097   0.00040   0.00089   0.00122   0.00210   2.53307
   R13        2.05282   0.00003   0.00018   0.00006   0.00023   2.05305
    A1        1.90593  -0.00001  -0.00031  -0.00052  -0.00083   1.90510
    A2        1.91654  -0.00014  -0.00045  -0.00130  -0.00175   1.91479
    A3        1.89645   0.00007  -0.00023   0.00126   0.00102   1.89747
    A4        1.92166   0.00000   0.00064  -0.00013   0.00051   1.92216
    A5        1.90640   0.00002  -0.00011  -0.00012  -0.00022   1.90618
    A6        1.91660   0.00007   0.00044   0.00083   0.00127   1.91787
    A7        2.19508  -0.00028  -0.00114  -0.00191  -0.00307   2.19201
    A8        2.18965   0.00021  -0.00016   0.00189   0.00171   2.19136
    A9        1.89792   0.00007   0.00122  -0.00030   0.00089   1.89881
   A10        1.87264   0.00029  -0.00028   0.00044   0.00015   1.87279
   A11        2.13214  -0.00036  -0.00035  -0.00262  -0.00297   2.12917
   A12        2.27840   0.00007   0.00063   0.00219   0.00281   2.28121
   A13        1.85467   0.00000  -0.00082   0.00034  -0.00049   1.85418
   A14        2.28887  -0.00006   0.00319   0.00298   0.00617   2.29504
   A15        2.13963   0.00007  -0.00237  -0.00334  -0.00571   2.13392
   A16        2.19729   0.00007  -0.00025   0.00070   0.00046   2.19775
   A17        1.91397  -0.00020   0.00145  -0.00102   0.00040   1.91437
   A18        2.17187   0.00013  -0.00122   0.00036  -0.00085   2.17102
   A19        1.88558  -0.00016  -0.00158   0.00059  -0.00102   1.88456
   A20        2.20001  -0.00004   0.00425   0.00280   0.00705   2.20705
   A21        2.19760   0.00020  -0.00268  -0.00339  -0.00608   2.19152
    D1        2.66919   0.00029   0.01227   0.04970   0.06197   2.73116
    D2       -0.51174   0.00022   0.00943   0.03828   0.04772  -0.46402
    D3       -1.50534   0.00019   0.01259   0.04841   0.06099  -1.44435
    D4        1.59692   0.00012   0.00975   0.03699   0.04674   1.64366
    D5        0.59124   0.00024   0.01271   0.04941   0.06212   0.65335
    D6       -2.58969   0.00017   0.00987   0.03799   0.04787  -2.54182
    D7        3.10709   0.00006  -0.00363  -0.00054  -0.00413   3.10295
    D8       -0.03426   0.00000  -0.00358  -0.00463  -0.00818  -0.04244
    D9       -0.00068   0.00011  -0.00117   0.00924   0.00808   0.00740
   D10        3.14116   0.00005  -0.00112   0.00515   0.00403  -3.13799
   D11       -3.10594  -0.00011   0.00425  -0.00462  -0.00034  -3.10628
   D12        0.03612   0.00003   0.00354   0.00655   0.01015   0.04627
   D13        0.00195  -0.00017   0.00178  -0.01444  -0.01266  -0.01071
   D14       -3.13917  -0.00004   0.00108  -0.00328  -0.00217  -3.14134
   D15       -0.00082  -0.00001   0.00012  -0.00054  -0.00043  -0.00125
   D16        3.13446  -0.00004  -0.00047  -0.00346  -0.00395   3.13050
   D17        3.14049   0.00006   0.00007   0.00401   0.00410  -3.13859
   D18       -0.00741   0.00003  -0.00052   0.00109   0.00057  -0.00684
   D19        3.13248  -0.00004  -0.00117  -0.00427  -0.00542   3.12706
   D20        0.00206  -0.00010   0.00098  -0.00837  -0.00739  -0.00533
   D21       -0.00347  -0.00001  -0.00066  -0.00169  -0.00235  -0.00582
   D22       -3.13389  -0.00007   0.00149  -0.00579  -0.00431  -3.13821
   D23       -0.00251   0.00017  -0.00173   0.01425   0.01252   0.01002
   D24        3.13862   0.00004  -0.00101   0.00311   0.00215   3.14078
   D25       -3.13313   0.00011   0.00039   0.01022   0.01059  -3.12254
   D26        0.00800  -0.00002   0.00110  -0.00093   0.00022   0.00822
         Item               Value     Threshold  Converged?
 Maximum Force            0.000908     0.000015     NO 
 RMS     Force            0.000201     0.000010     NO 
 Maximum Displacement     0.091656     0.000060     NO 
 RMS     Displacement     0.022702     0.000040     NO 
 Predicted change in Energy=-4.123732D-05
 GradGradGradGradGradGradGradGradGradGradGradGradGradGradGradGradGradGrad

                          Input orientation:                          
 ---------------------------------------------------------------------
 Center     Atomic      Atomic             Coordinates (Angstroms)
 Number     Number       Type             X           Y           Z
 ---------------------------------------------------------------------
      1          6           0       -3.968103    0.608201   -0.006425
      2          7           0       -2.565403    0.163954    0.020792
      3          6           0       -2.135075   -1.154711   -0.014793
      4          6           0       -0.768716   -1.136295   -0.021974
      5          7           0       -0.400386    0.194086    0.007781
      6          1           0        0.552676    0.549250    0.022933
      7          6           0       -1.496302    0.965733    0.025615
      8          1           0       -4.038194    1.606514    0.442376
      9          1           0       -4.328662    0.633887   -1.044221
     10          1           0       -4.571456   -0.094845    0.580894
     11          1           0       -2.831874   -1.986856   -0.028330
     12          1           0       -0.038811   -1.939340   -0.037244
     13          1           0       -1.504033    2.051842    0.050763
 ---------------------------------------------------------------------
                    Distance matrix (angstroms):
                    1          2          3          4          5
     1  C    0.000000
     2  N    1.471620   0.000000
     3  C    2.543210   1.387560   0.000000
     4  C    3.644117   2.218234   1.366503   0.000000
     5  N    3.591698   2.165265   2.197478   1.380749   0.000000
     6  H    4.521258   3.141794   3.182595   2.142231   1.017201
     7  C    2.497730   1.336357   2.214937   2.224897   1.340443
     8  H    1.096797   2.104240   3.384557   4.292798   3.926509
     9  H    1.098946   2.112859   3.011748   4.105088   4.090413
    10  H    1.096928   2.098795   2.722886   3.988596   4.220162
    11  H    2.832987   2.167811   1.085439   2.231618   3.266489
    12  H    4.682975   3.287990   2.238408   1.085300   2.164318
    13  H    2.856398   2.165993   3.268714   3.272644   2.161282
                    6          7          8          9         10
     6  H    0.000000
     7  C    2.090879   0.000000
     8  H    4.729675   2.654338   0.000000
     9  H    4.997343   3.045806   1.800096   0.000000
    10  H    5.194507   3.299960   1.788345   1.797497   0.000000
    11  H    4.229615   3.241056   3.819565   3.184446   2.641402
    12  H    2.558624   3.250796   5.366394   5.102776   4.932456
    13  H    2.547275   1.086428   2.602624   3.344864   3.781320
                   11         12         13
    11  H    0.000000
    12  H    2.793482   0.000000
    13  H    4.252117   4.252547   0.000000
 Stoichiometry    C4H7N2(1+)
 Framework group  C1[X(C4H7N2)]
 Deg. of freedom    33
 Full point group                 C1      NOp   1
 Largest Abelian subgroup         C1      NOp   1
 Largest concise Abelian subgroup C1      NOp   1
                         Standard orientation:                         
 ---------------------------------------------------------------------
 Center     Atomic      Atomic             Coordinates (Angstroms)
 Number     Number       Type             X           Y           Z
 ---------------------------------------------------------------------
      1          6           0       -2.114512   -0.007673    0.011432
      2          7           0       -0.643231    0.003487   -0.018123
      3          6           0        0.156190    1.137549   -0.005759
      4          6           0        1.456621    0.717990    0.007721
      5          7           0        1.417041   -0.662188    0.004889
      6          1           0        2.223337   -1.282322    0.000647
      7          6           0        0.142533   -1.077344   -0.003033
      8          1           0       -2.475963   -0.949689   -0.418594
      9          1           0       -2.465168    0.094093    1.047949
     10          1           0       -2.485067    0.830227   -0.591778
     11          1           0       -0.264812    2.138002   -0.011092
[...]
    D2        0.00001   0.00000   0.00000  -0.00001  -0.00001   0.00000
    D3       -1.05130   0.00000   0.00000  -0.00002  -0.00002  -1.05132
    D4        2.09028   0.00000   0.00000  -0.00001  -0.00001   2.09027
    D5        1.05134   0.00000   0.00000  -0.00002  -0.00002   1.05132
    D6       -2.09026   0.00000   0.00000  -0.00001  -0.00001  -2.09027
    D7        3.14159   0.00000   0.00000   0.00000   0.00000   3.14159
    D8       -0.00001   0.00000   0.00000   0.00001   0.00001   0.00000
    D9        0.00000   0.00000   0.00000   0.00000   0.00000   0.00000
   D10        3.14159   0.00000   0.00000   0.00001   0.00001   3.14159
   D11       -3.14159   0.00000   0.00000   0.00000   0.00000  -3.14159
   D12        0.00000   0.00000   0.00000   0.00000   0.00000   0.00000
   D13        0.00000   0.00000   0.00000   0.00000   0.00000   0.00000
   D14        3.14159   0.00000   0.00000   0.00000   0.00000  -3.14159
   D15        0.00000   0.00000   0.00000   0.00000   0.00000   0.00000
   D16        3.14159   0.00000   0.00000   0.00000   0.00000   3.14159
   D17       -3.14159   0.00000   0.00000  -0.00001  -0.00001   3.14159
   D18        0.00001   0.00000   0.00000  -0.00001  -0.00001   0.00000
   D19        3.14158   0.00000   0.00000   0.00001   0.00001   3.14159
   D20        0.00000   0.00000   0.00000   0.00000   0.00000   0.00000
   D21       -0.00001   0.00000   0.00000   0.00001   0.00001   0.00000
   D22       -3.14159   0.00000   0.00000   0.00000   0.00000  -3.14159
   D23        0.00000   0.00000   0.00000   0.00000   0.00000   0.00000
   D24       -3.14159   0.00000   0.00000   0.00000   0.00000   3.14159
   D25       -3.14158   0.00000   0.00000  -0.00001  -0.00001  -3.14159
   D26        0.00001   0.00000   0.00000  -0.00001  -0.00001   0.00000
         Item               Value     Threshold  Converged?
 Maximum Force            0.000001     0.000450     YES
 RMS     Force            0.000000     0.000300     YES
 Maximum Displacement     0.000025     0.001800     YES
 RMS     Displacement     0.000007     0.001200     YES
 Predicted change in Energy=-1.260401D-11
 Optimization completed.
    -- Stationary point found.
                           ----------------------------
                           !   Optimized Parameters   !
                           ! (Angstroms and Degrees)  !
 --------------------------                            --------------------------
 ! Name  Definition              Value          Derivative Info.                !
 --------------------------------------------------------------------------------
 ! R1    R(1,2)                  1.4706         -DE/DX =    0.0                 !
 ! R2    R(1,8)                  1.0963         -DE/DX =    0.0                 !
 ! R3    R(1,9)                  1.0982         -DE/DX =    0.0                 !
 ! R4    R(1,10)                 1.0982         -DE/DX =    0.0                 !
 ! R5    R(2,3)                  1.3864         -DE/DX =    0.0                 !
 ! R6    R(2,7)                  1.3367         -DE/DX =    0.0                 !
 ! R7    R(3,4)                  1.3663         -DE/DX =    0.0                 !
 ! R8    R(3,11)                 1.0856         -DE/DX =    0.0                 !
 ! R9    R(4,5)                  1.3807         -DE/DX =    0.0                 !
 ! R10   R(4,12)                 1.0854         -DE/DX =    0.0                 !
 ! R11   R(5,6)                  1.0167         -DE/DX =    0.0                 !
 ! R12   R(5,7)                  1.34           -DE/DX =    0.0                 !
 ! R13   R(7,13)                 1.0863         -DE/DX =    0.0                 !
 ! A1    A(2,1,8)              108.9754         -DE/DX =    0.0                 !
 ! A2    A(2,1,9)              109.3032         -DE/DX =    0.0                 !
 ! A3    A(2,1,10)             109.3032         -DE/DX =    0.0                 !
 ! A4    A(8,1,9)              109.6072         -DE/DX =    0.0                 !
 ! A5    A(8,1,10)             109.6071         -DE/DX =    0.0                 !
 ! A6    A(9,1,10)             110.0253         -DE/DX =    0.0                 !
 ! A7    A(1,2,3)              125.4779         -DE/DX =    0.0                 !
 ! A8    A(1,2,7)              125.7569         -DE/DX =    0.0                 !
 ! A9    A(3,2,7)              108.7652         -DE/DX =    0.0                 !
 ! A10   A(2,3,4)              107.3002         -DE/DX =    0.0                 !
 ! A11   A(2,3,11)             122.0214         -DE/DX =    0.0                 !
 ! A12   A(4,3,11)             130.6784         -DE/DX =    0.0                 !
 ! A13   A(3,4,5)              106.3029         -DE/DX =    0.0                 !
 ! A14   A(3,4,12)             131.1118         -DE/DX =    0.0                 !
 ! A15   A(5,4,12)             122.5853         -DE/DX =    0.0                 !
 ! A16   A(4,5,6)              125.9236         -DE/DX =    0.0                 !
 ! A17   A(4,5,7)              109.5825         -DE/DX =    0.0                 !
 ! A18   A(6,5,7)              124.4939         -DE/DX =    0.0                 !
 ! A19   A(2,7,5)              108.0492         -DE/DX =    0.0                 !
 ! A20   A(2,7,13)             125.9847         -DE/DX =    0.0                 !
 ! A21   A(5,7,13)             125.9662         -DE/DX =    0.0                 !
 ! D1    D(8,1,2,3)            180.001          -DE/DX =    0.0                 !
 ! D2    D(8,1,2,7)              0.0006         -DE/DX =    0.0                 !
 ! D3    D(9,1,2,3)            -60.2352         -DE/DX =    0.0                 !
 ! D4    D(9,1,2,7)            119.7644         -DE/DX =    0.0                 !
 ! D5    D(10,1,2,3)            60.2374         -DE/DX =    0.0                 !
 ! D6    D(10,1,2,7)          -119.763          -DE/DX =    0.0                 !
 ! D7    D(1,2,3,4)            179.9998         -DE/DX =    0.0                 !
 ! D8    D(1,2,3,11)            -0.0006         -DE/DX =    0.0                 !
 ! D9    D(7,2,3,4)              0.0001         -DE/DX =    0.0                 !
 ! D10   D(7,2,3,11)           179.9997         -DE/DX =    0.0                 !
 ! D11   D(1,2,7,5)           -179.9997         -DE/DX =    0.0                 !
 ! D12   D(1,2,7,13)             0.0002         -DE/DX =    0.0                 !
 ! D13   D(3,2,7,5)              0.0            -DE/DX =    0.0                 !
 ! D14   D(3,2,7,13)          -180.0001         -DE/DX =    0.0                 !
 ! D15   D(2,3,4,5)             -0.0002         -DE/DX =    0.0                 !
 ! D16   D(2,3,4,12)           179.9999         -DE/DX =    0.0                 !
 ! D17   D(11,3,4,5)           180.0003         -DE/DX =    0.0                 !
 ! D18   D(11,3,4,12)            0.0004         -DE/DX =    0.0                 !
 ! D19   D(3,4,5,6)            179.9993         -DE/DX =    0.0                 !
 ! D20   D(3,4,5,7)              0.0002         -DE/DX =    0.0                 !
 ! D21   D(12,4,5,6)            -0.0008         -DE/DX =    0.0                 !
 ! D22   D(12,4,5,7)          -179.9999         -DE/DX =    0.0                 !
 ! D23   D(4,5,7,2)             -0.0001         -DE/DX =    0.0                 !
 ! D24   D(4,5,7,13)           180.0            -DE/DX =    0.0                 !
 ! D25   D(6,5,7,2)           -179.9992         -DE/DX =    0.0                 !
 ! D26   D(6,5,7,13)             0.0009         -DE/DX =    0.0                 !
 --------------------------------------------------------------------------------
 GradGradGradGradGradGradGradGradGradGradGradGradGradGradGradGradGradGrad

 1\1\GINC-BARREL\Freq\RB3LYP\CC-pVDZ\C4H7N2(1+)\FLORIAN\15-Oct-2020\0\\
 # b3lyp/cc-pvdz freq geom=allcheck\\im1h opt of inital coordinates gen
 erqated with gv, sorted as in charmm rtf file->needed for gaupy sortin
 g atomnames\\1,1\C,-3.9680128373,0.6042276961,-0.0005516962\N,-2.56462
 70411,0.1646577055,-0.0000404779\C,-2.1327428266,-1.148641401,-0.10407
 69705\C,-0.7671417311,-1.1316318029,-0.0642471102\N,-0.3995860818,0.19
 31071171,0.0632333383\H,0.5524874073,0.5450729947,0.121092465\C,-1.496
 4210243,0.9619224063,0.1004512046\H,-3.9996688055,1.6958717342,0.09509
 5069\H,-4.4424221578,0.3030534563,-0.9440896697\H,-4.4927024733,0.1446
 078103,0.8476726703\H,-2.8276815019,-1.9774915781,-0.1968826405\H,-0.0
 416137387,-1.9372403822,-0.1151378644\H,-1.5142047878,2.0439056237,0.1
 956474021\\Version=ES64L-G09RevD.01\State=1-A\HF=-265.9263107\RMSD=4.0
 71e-09\RMSF=5.846e-07\ZeroPoint=0.1123117\Thermal=0.1177664\Dipole=0.4
 121529,0.4032834,0.0472412\DipoleDeriv=0.5719214,-0.1364806,0.0001239,
 -0.1646547,0.1346403,-0.0048636,-0.0023658,-0.0040731,0.1369543,-0.515
 2501,0.0608023,-0.0068085,0.0653657,0.0071411,0.0096299,-0.0064054,0.0
 095005,-0.0803182,0.0391397,0.1151229,0.0124573,-0.1923397,0.0467985,0
 .0024517,-0.0147392,0.0110798,-0.0413922,0.0735093,-0.0711389,-0.00345
 5,0.1863828,0.0626247,0.0132111,0.01932,0.0059848,-0.0265317,-0.647333
 2,-0.0375158,-0.0174232,-0.0600723,-0.020962,0.009255,-0.019414,0.0098
 892,-0.1443355,0.4189525,0.0536309,0.0075942,0.0695302,0.2180062,-0.00
 68393,0.0089977,-0.007286,0.3170066,0.6423506,-0.0088118,0.0144293,0.0
 484502,-0.1289047,-0.0189147,0.0194945,-0.0205228,0.0990513,0.0238489,
 -0.0590279,-0.0078636,0.0092138,0.0102414,-0.0092759,-0.0018292,-0.011
 1911,0.1170172,0.0205454,0.0357228,0.0166097,0.0206173,0.0860073,-0.04
 80481,-0.0214193,-0.0329058,0.0319697,0.020059,0.036061,-0.0113525,0.0
 137028,0.0701002,0.0557855,0.0233626,0.0416948,0.0483613,0.1133867,0.0
 131385,-0.0005956,0.0304938,0.15758,-0.000775,0.000941,-0.0012611,0.17
 59292,0.1331336,-0.0205279,-0.0031808,-0.0415348,0.1557597,-0.0034666,
 -0.0050382,-0.0028773,0.1813799,0.1057361,0.0190245,-0.0005352,0.01484
 49,0.2009672,0.0018501,-0.0009047,0.0019681,0.1849082\Polar=62.1775229
 ,-2.5388473,55.5762863,0.7363333,2.3731053,28.1699074\PG=C01 [X(C4H7N2
 )]\NImag=0\\0.46419720,0.04779102,0.61048154,0.00069468,0.00314821,0.5
 9035350,-0.20146290,0.02992523,-0.00121862,0.83919476,0.02670728,-0.11
 561503,-0.00383784,0.00983247,0.64533272,-0.00150288,-0.00374771,-0.06
 411983,0.02005534,0.04359347,0.15998203,-0.00578117,0.03255325,0.00277
 377,-0.14023523,0.02551358,0.00015368,0.81639473,0.01065156,-0.0032697
 7,0.00018880,0.04693443,-0.25785533,-0.01571308,0.17424924,0.69851163,
 0.00083661,0.00080358,-0.00193005,0.00204835,-0.01631438,-0.06668989,0
 .03484251,0.05570357,0.12988529,0.00339551,-0.00024363,0.00002129,-0.0
 4538012,0.08311360,0.00575704,-0.42788047,-0.01008731,-0.01102081,0.82
 095159,-0.00230044,-0.00842146,-0.00097466,0.02137354,-0.01208914,-0.0
 0147930,0.00079834,-0.10508622,-0.00334847,-0.17062728,0.70490111,-0.0
 0016066,-0.00091697,0.00178279,0.00029644,0.00025317,0.01145007,-0.010
 05826,-0.00365399,-0.06757707,0.00448324,0.04663561,0.12772573,0.00112
 612,-0.00866063,-0.00088103,-0.10905674,-0.02805433,-0.00593627,-0.049
 13846,-0.01953779,-0.00347375,-0.13724003,-0.04874338,-0.00655156,0.99
 144777,-0.00177379,-0.00006745,-0.00051809,0.01570667,-0.01421491,-0.0
 0205980,-0.08010695,-0.01950522,-0.00512971,-0.03308326,-0.28407471,-0
 .02097481,0.07459622,0.66871819,-0.00027204,-0.00071131,0.00515723,-0.
 00206580,-0.00328747,0.01370855,-0.00883079,-0.00343010,0.01252260,-0.
 00516672,-0.02141487,-0.05945563,0.03155702,0.05219761,0.10774020,-0.0
 0020154,-0.00025681,-0.00011226,0.00012758,0.00482613,0.00033887,0.002
 41322,0.00000834,-0.00002621,0.00245207,0.00022671,0.00021823,-0.40415
 013,-0.12104443,-0.02165865,0.41143949,-0.00013370,0.00128448,-0.00015
 455,0.00726483,-0.00295409,-0.00034579,-0.00180567,-0.00786300,-0.0010
 4436,-0.02742784,0.00309039,-0.00008905,-0.12444006,-0.11809336,-0.012
 69996,0.12852625,0.10736687,-0.00010136,-0.00015794,0.00297226,0.00055
 467,-0.00041438,0.00323927,-0.00018670,-0.00099333,0.00327910,-0.00222
 743,0.00068747,-0.00461052,-0.02195977,-0.01260487,-0.01573448,0.02244
 946,0.01162755,0.01835767,-0.02543608,-0.01117583,-0.00155757,-0.29294
 601,-0.12879807,-0.01769452,0.00483710,-0.05515946,-0.00515090,-0.0009
 2066,0.05631006,0.00452435,-0.30348576,0.12972351,0.00477278,-0.013880
 48,0.01785146,0.00133147,0.69320650,0.00458833,0.01492890,0.00190534,-
 0.13181068,-0.21904522,-0.01702676,0.00368901,-0.08643134,-0.00882650,
 0.00026175,-0.08613388,-0.00896693,0.13128789,-0.21046108,-0.00920410,
 -0.01265284,0.01606168,0.00151233,-0.00911690,0.94450720,-0.00016334,0
 .00146283,-0.00503309,-0.01796089,-0.01694216,-0.07035845,0.00005409,-
 0.01047812,0.01361047,-0.00043302,-0.00739388,0.01466629,0.00491165,-0
 .00924810,-0.06542024,-0.00136700,0.00236862,-0.00488090,0.01492531,0.
 07154881,0.13939725,-0.04872653,-0.00880348,-0.00086791,-0.00783032,0.
 04177971,0.00354829,-0.00491356,-0.00213185,-0.00034808,-0.00093150,0.
 00182088,0.00011934,0.00002438,0.00040884,0.00004536,0.00008247,-0.000
 02048,0.00000216,0.00194649,0.00138621,0.00016120,0.05850268,0.0071892
 0,-0.32997849,-0.02495114,0.00050305,-0.00818447,-0.00047873,0.0004042
 3,0.00174418,0.00009770,-0.00005389,-0.00013008,-0.00006211,0.00023870
 ,-0.00006688,0.00002763,-0.00001940,0.00001528,0.00000604,-0.00148241,
 0.00094062,-0.00000896,-0.00702499,0.34980690,0.00054638,-0.02539990,-
 0.04777393,-0.00010195,0.00067961,-0.00255462,-0.00012366,0.00002645,0
 .00076714,-0.00004648,-0.00000952,0.00055292,0.00003029,0.00003244,-0.
 00030004,0.00000226,0.00000601,-0.00005853,-0.00009249,0.00007156,0.00
 057514,-0.00016981,0.02698578,0.04479658,-0.09008454,-0.02953116,-0.09
 321803,-0.02732805,-0.00936862,-0.02710132,0.00176267,-0.00180577,-0.0
 0033433,-0.00101833,-0.00098996,0.00016078,-0.00233639,0.00070006,0.00
 081316,-0.00004065,0.00027631,0.00057310,0.00056155,0.00376716,-0.0021
 4409,0.00128396,-0.00025276,0.00178718,0.10898982,-0.03472483,-0.07110
 902,-0.07117165,0.00889395,0.00312532,0.01065832,0.00033287,0.00085153
 ,0.00044625,0.00007214,0.00063295,0.00008322,0.00163403,-0.00074435,0.
 00021101,-0.00005851,-0.00008713,-0.00032710,-0.00157554,-0.00102079,0
 .00033743,-0.01304123,-0.00532284,-0.02626486,0.03180889,0.06930103,-0
 .10259504,-0.06925967,-0.25968826,0.00225812,0.00205155,0.00653768,0.0
 0014494,-0.00045838,0.00066690,-0.00028681,0.00008851,0.00009113,0.000
 66234,0.00033683,-0.00028162,0.00003593,-0.00001526,-0.00016582,0.0011
 2779,0.00013282,0.00025128,0.00092552,0.00078866,-0.00002643,0.1076851
 6,0.07417152,0.26999850,-0.10113391,-0.05080059,0.09424552,-0.02860399
 ,-0.01366790,0.02315441,0.00175591,-0.00186534,0.00007071,-0.00101742,
 -0.00093722,-0.00039290,-0.00225961,0.00086099,-0.00078331,-0.00000817
 ,0.00037040,-0.00050877,0.00049324,0.00333872,0.00278900,0.00150275,0.
 00014894,-0.00183368,0.00822356,0.00638287,-0.00978554,0.12109976,-0.0
 5765611,-0.10067052,0.09592200,0.00990991,0.00544744,-0.01044442,0.000
 37119,0.00085103,-0.00039474,0.00002791,0.00065042,0.00001887,0.001745
 53,-0.00064814,-0.00017389,-0.00007028,-0.00015024,0.00032929,-0.00132
 758,-0.00091015,-0.00063108,-0.01407773,-0.00949586,0.02382931,0.00500
 564,0.00448224,-0.00805531,0.05585381,0.10058769,0.10255686,0.09434821
 ,-0.21907700,-0.00250490,-0.00301182,0.00549149,-0.00002160,0.00038706
 ,0.00067403,0.00023397,-0.00004337,0.00007269,-0.00047167,-0.00035064,
 -0.00045459,-0.00004019,0.00003922,-0.00013519,-0.00136804,-0.00014560
 ,0.00020905,-0.00336098,-0.00246612,0.00392770,0.01223557,0.01226028,-
 0.01726608,-0.10747777,-0.10081037,0.22660167,0.00126918,-0.00061106,0
 .00000380,0.01275500,0.01466569,0.00172427,-0.19161260,-0.15856140,-0.
 01863652,-0.00240642,-0.01951384,-0.00182214,-0.00518803,-0.00023933,-
 0.00030596,0.00031610,-0.00103862,-0.00012748,-0.00210690,0.00418382,0
 .00022670,-0.00007634,-0.00007560,-0.00000171,0.00005456,0.00013017,-0
 .00018270,0.00002591,0.00009635,0.00021541,0.18576607,-0.00122795,0.00
 128060,0.00014883,-0.01908168,-0.01741459,-0.00185741,-0.14977515,-0.2
 3252997,-0.02236075,0.00310063,0.00780998,0.00068699,0.00257424,0.0019
 7998,-0.00019120,-0.00008470,0.00073546,-0.00007759,0.00463248,-0.0030
 1326,-0.00040193,0.00013676,0.00016087,0.00004051,0.00035736,-0.000190
 35,0.00023298,0.00031472,-0.00014669,-0.00021105,0.16037362,0.24147705
 ,-0.00005074,0.00016618,-0.00077874,-0.00126054,-0.00091053,-0.0025837
 2,-0.01785922,-0.02260702,-0.02972354,0.00017781,0.00005226,0.00103594
 ,-0.00005712,-0.00027020,0.00493342,-0.00004314,-0.00010435,0.00157544
 ,0.00026641,-0.00041453,0.00297205,0.00001707,0.00003455,-0.00025026,-
 0.00027556,0.00002887,-0.00017685,0.00034769,-0.00001947,-0.00019187,0
 .01879404,0.02395792,0.02411987,0.00059556,0.00108063,0.00008373,-0.00
 510025,-0.00022488,-0.00032259,-0.00251414,0.01898676,0.00157457,-0.20
 453358,0.16151130,0.00932455,0.01366900,-0.01387282,-0.00077656,0.0006
 2141,0.00064666,0.00012102,-0.00161050,-0.00420414,-0.00050549,-0.0004
 2241,0.00005526,-0.00000558,0.00002637,0.00000139,-0.00000972,0.000033
 05,-0.00000874,0.00001118,0.00028973,-0.00040773,0.00004924,0.19808825
 ,0.00044268,0.00063997,-0.00002097,-0.00283533,0.00180603,-0.00042268,
 -0.00330723,0.00854713,0.00055539,0.15242529,-0.22359088,-0.01304025,0
 .02000679,-0.01664735,-0.00070040,0.00027613,0.00055690,0.00020322,-0.
 00474423,-0.00308036,-0.00068437,-0.00021603,0.00010469,0.00000756,-0.
 00000179,0.00000118,-0.00001081,0.00002054,-0.00002681,0.00001046,0.00
 038302,-0.00004603,0.00024989,-0.16340172,0.23176643,0.00002731,-0.000
 00309,0.00101805,-0.00055346,-0.00034938,0.00563887,-0.00039728,0.0011
 8109,0.00131137,0.00852101,-0.01278538,-0.02867751,0.00221986,-0.00165
 110,-0.00246389,0.00008829,0.00021363,-0.00163177,-0.00055326,-0.00066
 924,0.00307740,-0.00002957,0.00001517,-0.00004877,0.00013181,-0.000147
 21,-0.00001854,-0.00012805,0.00014614,0.00000276,0.00011916,0.00022768
 ,-0.00272636,-0.00950263,0.01399116,0.02269800,0.00224310,-0.00126696,
 0.00003263,0.00586628,-0.02632465,-0.00217431,-0.00508800,-0.00168143,
 -0.00038216,-0.00547063,0.00107128,-0.00014141,0.00658788,0.02812430,0
 .00267151,0.00082865,-0.00006953,0.00007962,-0.06065850,0.00528168,-0.
 00049412,-0.00044207,0.00036967,0.00000925,-0.00009452,0.00014380,0.00
 002002,-0.00011108,0.00013010,-0.00000786,0.00091376,-0.00091260,-0.00
 010593,0.00085751,0.00095188,0.00005679,0.05456762,0.00044674,0.000516
 25,0.00031572,0.00338362,-0.00833873,-0.00067611,-0.00291671,0.0020353
 6,-0.00018759,0.00252188,0.00244152,0.00002626,-0.00264720,-0.00617472
 ,-0.00062292,0.00032340,0.00003677,0.00020931,0.00486252,-0.36634233,-
 0.02992909,-0.00021660,0.00040608,-0.00000495,0.00003463,0.00008026,-0
 .00000343,-0.00001995,0.00002959,-0.00000626,0.00020718,-0.00010306,-0
 .00016357,-0.00016196,-0.00003093,-0.00016947,-0.00581754,0.37544394,0
 .00018421,0.00026760,-0.00288293,0.00045324,-0.00150984,0.00025856,-0.
 00049148,-0.00015294,0.00320366,-0.00001309,-0.00001439,0.00294316,-0.
 00004998,0.00024046,0.00004850,0.00011441,0.00019830,-0.00220653,-0.00
 053133,-0.02991720,-0.02906626,-0.00004261,0.00001153,0.00039309,-0.00
 031342,-0.00028608,0.00007811,0.00030268,0.00028368,0.00014534,-0.0000
 0687,-0.00019500,0.00179462,-0.00004172,-0.00013821,0.00182039,0.00043
 598,0.03121208,0.02347028\\0.00000148,0.00000045,-0.00000027,-0.000000
 71,0.00000032,0.00000061,-0.00000054,0.00000069,-0.00000052,0.00000027
 ,-0.00000059,0.00000015,0.00000068,-0.00000126,-0.00000063,-0.00000028
 ,-0.00000104,0.00000023,-0.00000069,0.00000006,0.00000003,0.00000041,0
 .00000060,0.00000014,-0.00000023,0.00000080,0.,-0.00000011,0.00000088,
 0.00000018,-0.00000041,0.00000007,0.00000023,-0.00000076,-0.00000077,-
 0.00000012,0.00000088,-0.00000021,-0.00000004\\\@


 ASKING DUMB QUESTIONS IS EASIER THAN CORECTING DUMB MISTAKES.
 Job cpu time:       0 days  0 hours  2 minutes 55.5 seconds.
 File lengths (MBytes):  RWF=     24 Int=      0 D2E=      0 Chk=      3 Scr=      1
 Normal termination of Gaussian 09 at Thu Oct 15 10:35:49 2020.
