[Molden Format]

[FREQ]
          68.7024720618
         212.7125082071
         212.7689787905
         331.5963758102
         373.9496559791
         373.9603004499
         553.4918630627
         553.5025153833
         619.6662375571
         619.6695216103
         698.5263357920
         822.0250994971
        1091.7452163659
        1309.2284953997
        1309.3395172990
        1363.5715869808
        1363.7189618513
        1391.2216320488

[FR-COORD]
C         -0.7643729839        1.5085444834        0.0000000000
F         -3.2589195742        1.2887574110        0.0000000000
F         -0.1485623496        2.8647544118        2.0131766555
F         -0.1485623496        2.8647544118       -2.0131766555
S          0.7997396446       -1.5784039719        0.0000000000
O          3.4635741291       -0.8895115482        0.0000000000
O         -0.1324566850       -2.7116706121        2.3276344054
O         -0.1324566850       -2.7116706121       -2.3276344054

[FR-NORM-COORD]
vibration 1
          -0.0000000000        0.0000000001       -0.0000232767
          -0.0000000002        0.0000000007        0.4027164044
           0.3111124555        0.1575931721       -0.2013548955
          -0.3111124554       -0.1575931727       -0.2013548957
          -0.0000000006       -0.0000000003       -0.0000212394
          -0.0000000005        0.0000000002        0.4137470835
          -0.3196056670       -0.1619023977       -0.2068475095
           0.3196056688        0.1619023979       -0.2068475108
vibration 2
          -0.1125475555       -0.0570358927       -0.0000010750
          -0.1678651254        0.4829435788        0.0000002719
           0.1511295687       -0.2074276437        0.0158618778
           0.1511259486       -0.2074210937       -0.0158608643
          -0.0779640064       -0.0395216285       -0.0000007453
          -0.2331836371        0.5780320193        0.0000000584
           0.1569161171       -0.2685578149       -0.0200126333
           0.1569205658       -0.2685658409        0.0200133445
vibration 3
           0.0000009596        0.0000004868       -0.1261848511
           0.0000014313       -0.0000041170        0.0318632904
           0.2124644983       -0.3842803375        0.0593856157
          -0.2124670751        0.3842838767        0.0593858869
           0.0000006641        0.0000003371       -0.0874059254
           0.0000019874       -0.0000049276        0.0070220415
          -0.2608866352        0.4706865302        0.0417205927
           0.2608839607       -0.4706819553        0.0417202529
vibration 4
          -0.0907859528        0.1792183933        0.0000000009
          -0.1385484163        0.3779961945        0.0000000007
          -0.2017847852        0.3460275728       -0.0409209324
          -0.2017847826        0.3460275692        0.0409209329
           0.1034918760       -0.2042854174       -0.0000000001
           0.1342004923       -0.3496352328       -0.0000000012
           0.1854787147       -0.3237302002       -0.0331935839
           0.1854787152       -0.3237301996        0.0331935832
vibration 5
          -0.1862953841       -0.0943711090       -0.0000016153
          -0.2623564576        0.4002619813       -0.0000024282
          -0.1144184113       -0.3245147880        0.1129296585
          -0.1144228491       -0.3245098929       -0.1129314884
           0.1194506041        0.0605067036        0.0000010357
           0.2318418917       -0.3733763946        0.0000025045
           0.1262967699        0.3093507131        0.1237971984
           0.1262924125        0.3093550770       -0.1237955036
vibration 6
          -0.0000014404       -0.0000007298        0.2088336557
          -0.0000020282        0.0000030928        0.3139507218
          -0.2868704204        0.3163398791        0.1183430982
           0.2868686513       -0.3163448992        0.1183413511
           0.0000009232        0.0000004691       -0.1339234822
           0.0000017930       -0.0000028887       -0.3239358081
          -0.2818097616        0.2822960333       -0.1095356117
           0.2818117143       -0.2822912457       -0.1095375270
vibration 7
          -0.1431779639       -0.0725611141        0.0000050139
          -0.2214059430       -0.1534188795       -0.0000116562
           0.1817698910        0.1127284001       -0.2771243255
           0.1817535446        0.1127223517        0.2771310030
          -0.2151467935       -0.1090435247        0.0000075378
          -0.2581093078       -0.1256541453       -0.0000175813
           0.3133786276        0.1562449012        0.3679340380
           0.3133990277        0.1562555153       -0.3679293719
vibration 8
          -0.0000044754       -0.0000022681       -0.1605059900
          -0.0000069206       -0.0000047937        0.3730550129
          -0.2615944247       -0.0968276140       -0.1068806937
           0.2616057854        0.0968346586       -0.1068633715
          -0.0000067217       -0.0000034069       -0.2411923238
          -0.0000080641       -0.0000039265        0.5625924596
           0.3264311074        0.1698197235       -0.0746304137
          -0.3264115236       -0.1698099588       -0.0746534057
vibration 9
           0.2899791275        0.1469346087       -0.0000065221
           0.4639257892        0.0605284858        0.0000078832
          -0.1996078129       -0.0138714376        0.3611948001
          -0.1995973280       -0.0138600607       -0.3612041382
          -0.2059671950       -0.1043868794        0.0000046313
          -0.2756318784       -0.0005667775       -0.0000066951
           0.1964516624        0.0300123601        0.2511502566
           0.1964586988        0.0300207581       -0.2511461977
vibration 10
          -0.0000058168       -0.0000029479       -0.3250549481
          -0.0000093063       -0.0000012138        0.3928784754
          -0.2612362275       -0.2835024573       -0.2327192139
           0.2612442349        0.2835030131       -0.2327047229
           0.0000041331        0.0000020943        0.2308944490
           0.0000055309        0.0000000122       -0.3338222063
          -0.1754611183       -0.2093419920        0.1011580893
           0.1754532326        0.2093407866        0.1011681695
vibration 11
          -0.1347590371        0.2659685141       -0.0000000004
          -0.1064982332       -0.1704403599       -0.0000000002
           0.1237030730       -0.0538102839        0.1489681637
           0.1237030734       -0.0538102837       -0.1489681646
          -0.2499469524        0.4932063211        0.0000000004
          -0.0727832815       -0.3950872649        0.0000000003
           0.2530669104       -0.2300215197       -0.2108401206
           0.2530669089       -0.2300215172        0.2108401210
vibration 12
           0.1466715689       -0.2892585871       -0.0000000001
           0.4648302643        0.2253932080       -0.0000000001
          -0.2263054446       -0.1247907461       -0.4472752011
          -0.2263054445       -0.1247907466        0.4472752011
          -0.1037879734        0.2047791420        0.0000000000
          -0.0620887520       -0.0999799490        0.0000000000
           0.0724984589       -0.0318038814       -0.0870953415
           0.0724984586       -0.0318038807        0.0870953416
vibration 13
          -0.1067432057        0.2107404266        0.0000000001
           0.0658563552       -0.0097473905       -0.0000000000
          -0.0068576830       -0.0466123935       -0.0470774736
          -0.0068576829       -0.0466123933        0.0470774734
          -0.0874631445        0.1730505014       -0.0000000002
           0.5340617163        0.1108455632       -0.0000000000
          -0.1705407896       -0.2462759772        0.4562418536
          -0.1705407896       -0.2462759767       -0.4562418531
vibration 14
          -0.0000001877       -0.0000000929        0.8636123260
           0.0000000742        0.0000000075       -0.0505789705
          -0.0478076237       -0.1307192363       -0.2267802007
           0.0478076589        0.1307192833       -0.2267802493
           0.0000000430        0.0000000213       -0.1946902823
          -0.0000000519       -0.0000000168        0.0102236194
          -0.0666560349       -0.0660363669        0.1649156158
           0.0666560117        0.0660363462        0.1649155723
vibration 15
           0.7701545776        0.3909286935        0.0000002106
          -0.3042019531       -0.0312412683       -0.0000000124
          -0.0727170195       -0.0984433259       -0.1018123909
          -0.0727169960       -0.0984432621        0.1018122803
          -0.1734898169       -0.0880195403       -0.0000000467
           0.2079546681        0.0681821842        0.0000000024
           0.0475501625        0.0427172944       -0.0892214758
           0.0475501943        0.0427173258        0.0892215548
vibration 16
          -0.0000003935       -0.0000001944        0.4398794882
           0.0000001674        0.0000000091       -0.0271370891
          -0.0223690225       -0.0764546387       -0.1215544152
           0.0223690965        0.0764547496       -0.1215545225
          -0.0000004097       -0.0000002082        0.4623931835
           0.0000005841        0.0000001411       -0.0339569768
           0.1596805898        0.2158314379       -0.4496694010
          -0.1596803465       -0.2158311595       -0.4496689236
vibration 17
           0.3921345273        0.1986228667        0.0000004358
          -0.1667382586       -0.0093197656       -0.0000000268
          -0.0370907157       -0.0563577105       -0.0544564066
          -0.0370906715       -0.0563575590        0.0544561656
           0.4125908236        0.2089711427        0.0000004604
          -0.5878713072       -0.1419925649       -0.0000000338
          -0.1224436826       -0.1398906507        0.2398720178
          -0.1224440003       -0.1398910803       -0.2398729132
vibration 18
          -0.4109835800        0.8099301238       -0.0000000036
           0.1955282515       -0.0552345593        0.0000000003
          -0.0043520208       -0.1563909658       -0.1291998261
          -0.0043520212       -0.1563909668        0.1291998280
           0.0732941428       -0.1444129498       -0.0000000011
          -0.0918202801        0.0030236379        0.0000000001
           0.0158717097        0.0575614970       -0.0695934121
           0.0158717106        0.0575614981        0.0695934144
