[Molden Format]

[FREQ]
         414.1290220000
         591.1468930000
         626.2666340000
         680.4056910000
         900.7779680000
        1031.4171200000
        1033.5016380000
        1303.3353490000
        1365.3617550000
        1520.3831300000
        1520.7179420000
        1611.8858900000
        2908.0134740000
        2968.8878830000
        2969.5554870000

[FR-COORD]
C         -0.0545354783       -2.7023750343       -0.0195910337
H          1.8489444804       -3.5116052270        0.3325286447
H         -0.7375432119       -3.3619046758       -1.8914397229
H         -1.3640693159       -3.3690156075        1.4790776763
C          0.0193236968        0.2249609803        0.0003141554
O          2.1609529952        1.2333718656        0.4005367995
O         -2.0968156921        1.2920032025       -0.3907916398

[FR-NORM-COORD]
vibration 1
          -0.1364100000        0.0121400000       -0.0253300000
          -0.1882100000       -0.1028200000       -0.0352000000
          -0.1887300000        0.0814100000       -0.0339400000
          -0.1883800000        0.0814100000       -0.0358100000
           0.0876600000       -0.0013800000        0.0162900000
           0.0396900000        0.1180300000        0.0076300000
           0.0325300000       -0.1298900000        0.0057700000
vibration 2
          -0.0004600000       -0.0000100000        0.0025000000
          -0.0970800000       -0.0011000000        0.5222500000
           0.5226200000        0.0394200000       -0.2031100000
          -0.4147000000       -0.0382000000       -0.3775000000
          -0.0037600000       -0.0000400000        0.0202300000
           0.0099100000        0.0001100000       -0.0533200000
          -0.0074200000       -0.0000800000        0.0399400000
vibration 3
           0.0165600000        0.1999000000        0.0035000000
          -0.0026800000        0.1357500000       -0.0002100000
           0.0122300000        0.1942300000       -0.0013000000
           0.0108000000        0.1942200000        0.0064000000
          -0.0041700000        0.0226400000       -0.0007300000
           0.0475400000       -0.1072900000        0.0086100000
          -0.0581200000       -0.0928000000       -0.0110000000
vibration 4
           0.0002500000        0.0000000000       -0.0013200000
          -0.0379900000       -0.0004300000        0.2043900000
           0.0157800000       -0.2804000000        0.1010500000
          -0.0512500000        0.2800000000        0.0897700000
           0.0411400000        0.0004700000       -0.2213200000
          -0.0123600000       -0.0001400000        0.0664900000
          -0.0140800000       -0.0001600000        0.0757500000
vibration 5
           0.0069000000        0.1051400000        0.0015000000
          -0.0057500000        0.0509500000       -0.0009600000
          -0.0016100000        0.0927800000       -0.0022600000
          -0.0023900000        0.0927700000        0.0019100000
          -0.0018800000       -0.1449400000       -0.0006600000
          -0.1353400000        0.0084200000       -0.0251400000
           0.1321900000        0.0065600000        0.0245900000
vibration 6
           0.1049600000       -0.0299600000        0.0194500000
          -0.1752300000       -0.6463300000       -0.0339400000
          -0.1840900000        0.3835300000       -0.0359200000
          -0.1849900000        0.3835200000       -0.0310700000
           0.0142500000        0.0059400000        0.0026600000
          -0.0268500000       -0.0039000000       -0.0050000000
          -0.0283500000        0.0143300000       -0.0052400000
vibration 7
          -0.0212800000       -0.0002400000        0.1144700000
           0.0371900000        0.0004200000       -0.2000700000
           0.0472400000        0.5330100000       -0.1211800000
          -0.0001300000       -0.5324800000       -0.1322400000
           0.0223400000        0.0002500000       -0.1202000000
          -0.0033600000       -0.0000400000        0.0180500000
          -0.0027500000       -0.0000300000        0.0148200000
vibration 8
          -0.0072600000       -0.0592600000       -0.0014700000
           0.0603500000        0.1142800000        0.0114600000
           0.0104600000        0.0939600000       -0.0569700000
          -0.0107900000        0.0937200000        0.0573100000
           0.0007300000        0.2022000000        0.0005600000
          -0.0941300000       -0.0616800000       -0.0176300000
           0.0952500000       -0.0646500000        0.0175700000
vibration 9
           0.0199800000        0.0909400000        0.0039100000
          -0.2442300000       -0.4803900000       -0.0464100000
          -0.0282200000       -0.4510700000        0.2423800000
           0.0611100000       -0.4500500000       -0.2381600000
           0.0049600000        0.0618600000        0.0010500000
          -0.0259700000       -0.0133900000       -0.0048500000
           0.0205600000       -0.0142800000        0.0037900000
vibration 10
          -0.0115000000       -0.0001300000        0.0619300000
           0.1314700000        0.0015700000       -0.7069800000
           0.3911700000       -0.2448400000        0.0269300000
          -0.3751200000        0.2450000000       -0.1146700000
          -0.0004600000       -0.0000100000        0.0024500000
          -0.0000600000       -0.0000000000        0.0003100000
          -0.0002600000       -0.0000000000        0.0014200000
vibration 11
          -0.0647700000        0.0112500000       -0.0120000000
          -0.2243600000       -0.3002400000       -0.0425200000
           0.5697600000        0.0439600000       -0.2628800000
           0.4370200000        0.0425800000        0.4501800000
           0.0173400000        0.0016300000        0.0032300000
          -0.0069200000        0.0005400000       -0.0012900000
          -0.0067700000        0.0032500000       -0.0012500000
vibration 12
          -0.0136700000       -0.0010200000       -0.0025400000
           0.0471800000        0.1145200000        0.0090100000
          -0.0188900000       -0.0450100000        0.0208800000
          -0.0100900000       -0.0449100000       -0.0264600000
           0.2360700000       -0.0027200000        0.0438800000
          -0.0847000000       -0.0388900000       -0.0158300000
          -0.0834100000        0.0401500000       -0.0154200000
vibration 13
           0.0035200000        0.0481000000        0.0007600000
           0.4907900000       -0.2395400000        0.0907200000
          -0.1828400000       -0.2048300000       -0.5032800000
          -0.3513300000       -0.2067500000        0.4031200000
           0.0001700000        0.0064300000        0.0000400000
          -0.0001900000        0.0000600000       -0.0000400000
           0.0001600000        0.0000200000        0.0000300000
vibration 14
          -0.0165200000       -0.0001900000        0.0888600000
           0.0027500000        0.0000100000       -0.0146200000
          -0.2071000000       -0.2353600000       -0.5907100000
           0.4053800000        0.2376300000       -0.4758900000
          -0.0001600000       -0.0000000000        0.0008900000
          -0.0000600000       -0.0000000000        0.0003100000
          -0.0000800000       -0.0000000000        0.0004400000
vibration 15
           0.0887400000       -0.0051600000        0.0164900000
          -0.6953400000        0.3327000000       -0.1285500000
          -0.1325300000       -0.1316500000       -0.3272100000
          -0.2411200000       -0.1328600000        0.2571400000
           0.0018700000       -0.0001600000        0.0003500000
          -0.0003700000       -0.0010800000       -0.0000700000
          -0.0003100000        0.0007800000       -0.0000600000
