[Molden Format]

[FREQ]
          35.8907149848
         467.1055270302
         677.2695938063
         682.7673155140
         959.3958940431
        1073.2816890973
        1130.4794265988
        1423.6874626767
        1531.7853515241
        1560.5384452819
        1572.4086379519
        1885.8308639277
        3142.1552805726
        3198.6111895718
        3226.7335484744

[FR-COORD]
C         -0.0851035132       -2.6885954975        0.0000000000
H          0.9205730783       -3.4104474257        1.6601588932
H          0.9205730783       -3.4104474257       -1.6601588932
H         -2.0207489020       -3.4089663351        0.0000000000
C         -0.0030971624        0.2454361166        0.0000000000
O          2.1452857284        1.1543364870        0.0000000000
O         -2.0677975842        1.3231898826        0.0000000000

[FR-NORM-COORD]
vibration 1
           0.0000000000        0.0000000000        0.0076037415
           0.5014444870       -0.0484870285       -0.3209434955
          -0.5014444869        0.0484870286       -0.3209434955
           0.0000000001       -0.0000000001        0.5301123448
          -0.0000000000        0.0000000000        0.0162274764
          -0.0000000000       -0.0000000000        0.0445641388
          -0.0000000000        0.0000000000       -0.0554004160
vibration 2
          -0.1810615830       -0.0066852237       -0.0000000000
          -0.3850720409       -0.2799851627        0.0107392036
          -0.3850720413       -0.2799851629       -0.0107392038
          -0.3667652980        0.5204231179        0.0000000003
           0.1403633321       -0.0076779548       -0.0000000000
           0.0552971954        0.2105166665        0.0000000000
           0.0468718241       -0.1972490241       -0.0000000000
vibration 3
          -0.0000000000       -0.0000000005        0.0474535886
          -0.0541391585       -0.6011608395       -0.1814007980
           0.0541391584        0.6011608382       -0.1814007980
          -0.0000000000       -0.0000000006       -0.3438321724
           0.0000000000       -0.0000000000        0.2601207802
          -0.0000000002        0.0000000003       -0.0986242543
           0.0000000002        0.0000000003       -0.0876055128
vibration 4
          -0.0091016227        0.4177508312        0.0000000002
           0.0167535257        0.4748872472        0.0020297422
           0.0167535262        0.4748872510       -0.0020297432
          -0.0179744703        0.4701094815       -0.0000000012
           0.0118513163        0.0541389745        0.0000000008
           0.1580251671       -0.2133831385       -0.0000000003
          -0.1610667868       -0.2301123384       -0.0000000003
vibration 5
           0.0138417851       -0.2724378118        0.0000000000
          -0.0608379932       -0.4601451574       -0.0134292070
          -0.0608379932       -0.4601451574        0.0134292071
           0.0171827880       -0.3474132700        0.0000000001
           0.0124540906        0.3951701069       -0.0000000001
           0.3221640216       -0.0255209784        0.0000000000
          -0.3353081773        0.0133193418        0.0000000000
vibration 6
           0.1747756048        0.0105899299       -0.0000000001
          -0.2004937473       -0.3648906854        0.0620138111
          -0.2004937473       -0.3648906859       -0.0620138110
          -0.1072390841        0.7708339398        0.0000000002
          -0.0163473579       -0.0096867087        0.0000000002
          -0.0506683100       -0.0518170208       -0.0000000000
          -0.0361677581        0.0485527044       -0.0000000000
vibration 7
          -0.0000000001       -0.0000000000       -0.1698710299
          -0.0546310599        0.6143175688        0.1450517387
           0.0546310601       -0.6143175683        0.1450517388
           0.0000000001       -0.0000000007        0.3026340258
           0.0000000000        0.0000000000        0.2659765032
           0.0000000001        0.0000000000       -0.0537069134
           0.0000000000       -0.0000000000       -0.0557429595
vibration 8
           0.0007029944        0.1483861719       -0.0000000000
          -0.1080015078       -0.5219067098       -0.1976347498
          -0.1080015077       -0.5219067097        0.1976347498
           0.2249993659       -0.5197157225        0.0000000001
           0.0041424823        0.0651125546       -0.0000000000
          -0.0513915227       -0.0291826424        0.0000000000
           0.0471894079       -0.0324757618        0.0000000000
vibration 9
           0.0374427233       -0.1223284409       -0.0000000000
          -0.2530458941        0.3649023333        0.3874127541
          -0.2530458939        0.3649023334       -0.3874127540
          -0.0640261896        0.0804518973        0.0000000003
           0.0161809881        0.4100796792       -0.0000000000
          -0.1947462274       -0.1219465237        0.0000000000
           0.1904382726       -0.1449890498       -0.0000000000
vibration 10
          -0.0616772042       -0.0238983528        0.0000000000
           0.5186313410       -0.1074089197       -0.3706486802
           0.5186313407       -0.1074089200        0.3706486801
          -0.1794688768        0.3467732652       -0.0000000003
           0.0194261474        0.0648122076        0.0000000000
          -0.0405689777       -0.0248063585       -0.0000000000
           0.0182185372       -0.0142031801        0.0000000000
vibration 11
          -0.0000000000       -0.0000000000       -0.0619857232
          -0.3715846395       -0.2819220283        0.0639649980
           0.3715846399        0.2819220283        0.0639649982
          -0.0000000001        0.0000000002        0.7433076268
           0.0000000000       -0.0000000000       -0.0184443086
           0.0000000000        0.0000000000        0.0039739452
          -0.0000000000        0.0000000000        0.0014718668
vibration 12
          -0.0513276130        0.0042627040       -0.0000000000
          -0.0612590656        0.1535882333        0.1009288301
          -0.0612590656        0.1535882333       -0.1009288301
           0.1146645905       -0.2962155289        0.0000000000
           0.7968570056       -0.0445808509       -0.0000000000
          -0.2777424646       -0.1032084388        0.0000000000
          -0.2810875092        0.1327660241       -0.0000000000
vibration 13
          -0.0117333588        0.0490130227        0.0000000000
           0.3003152098       -0.1981259909        0.5026339217
           0.3003152098       -0.1981259909       -0.5026339218
          -0.4582036951       -0.1526826012        0.0000000000
          -0.0007941762       -0.0051214368        0.0000000000
           0.0009658262        0.0007980299        0.0000000000
          -0.0005413661        0.0008606837       -0.0000000000
vibration 14
          -0.0000000001        0.0000000000       -0.0916545190
           0.3527009850       -0.2425890064        0.5589002852
          -0.3527009848        0.2425890063        0.5589002847
           0.0000000005        0.0000000002       -0.0190576769
          -0.0000000000        0.0000000000       -0.0014600832
          -0.0000000000       -0.0000000000        0.0004667844
           0.0000000000       -0.0000000000        0.0001605796
vibration 15
          -0.0933582908       -0.0062808824        0.0000000001
           0.1504806562       -0.1148145876        0.2761994992
           0.1504806567       -0.1148145879       -0.2761994999
           0.8247788324        0.2944866211        0.0000000000
          -0.0054126887        0.0013579990        0.0000000000
           0.0013838535       -0.0002260499       -0.0000000000
           0.0017860700       -0.0001672224       -0.0000000000
