 Entering Gaussian System, Link 0=g09
 Initial command:
 /opt/g09/l1.exe "/scratch/data/florian/gaussian_scratch/Gau-25473.inp" -scrdir="/scratch/data/florian/gaussian_scratch/"
 Entering Link 1 = /opt/g09/l1.exe PID=     25475.
  
 Copyright (c) 1988,1990,1992,1993,1995,1998,2003,2009,2013,
            Gaussian, Inc.  All Rights Reserved.
  
 This is part of the Gaussian(R) 09 program.  It is based on
 the Gaussian(R) 03 system (copyright 2003, Gaussian, Inc.),
 the Gaussian(R) 98 system (copyright 1998, Gaussian, Inc.),
 the Gaussian(R) 94 system (copyright 1995, Gaussian, Inc.),
 the Gaussian 92(TM) system (copyright 1992, Gaussian, Inc.),
 the Gaussian 90(TM) system (copyright 1990, Gaussian, Inc.),
 the Gaussian 88(TM) system (copyright 1988, Gaussian, Inc.),
 the Gaussian 86(TM) system (copyright 1986, Carnegie Mellon
 University), and the Gaussian 82(TM) system (copyright 1983,
 Carnegie Mellon University). Gaussian is a federally registered
 trademark of Gaussian, Inc.
  
 This software contains proprietary and confidential information,
 including trade secrets, belonging to Gaussian, Inc.
  
 This software is provided under written license and may be
 used, copied, transmitted, or stored only in accord with that
 written license.
  
 The following legend is applicable only to US Government
 contracts under FAR:
  
                    RESTRICTED RIGHTS LEGEND
  
 Use, reproduction and disclosure by the US Government is
 subject to restrictions as set forth in subparagraphs (a)
 and (c) of the Commercial Computer Software - Restricted
 Rights clause in FAR 52.227-19.
  
 Gaussian, Inc.
 340 Quinnipiac St., Bldg. 40, Wallingford CT 06492
  
  
 ---------------------------------------------------------------
 Warning -- This program may not be used in any manner that
 competes with the business of Gaussian, Inc. or will provide
 assistance to any competitor of Gaussian, Inc.  The licensee
 of this program is prohibited from giving any competitor of
 Gaussian, Inc. access to this program.  By using this program,
 the user acknowledges that Gaussian, Inc. is engaged in the
 business of creating and licensing software in the field of
 computational chemistry and represents and warrants to the
 licensee that it is not a competitor of Gaussian, Inc. and that
 it will not use this program in any manner prohibited above.
 ---------------------------------------------------------------
  

 Cite this work as:
 Gaussian 09, Revision D.01,
 M. J. Frisch, G. W. Trucks, H. B. Schlegel, G. E. Scuseria, 
 M. A. Robb, J. R. Cheeseman, G. Scalmani, V. Barone, B. Mennucci, 
 G. A. Petersson, H. Nakatsuji, M. Caricato, X. Li, H. P. Hratchian, 
 A. F. Izmaylov, J. Bloino, G. Zheng, J. L. Sonnenberg, M. Hada, 
 M. Ehara, K. Toyota, R. Fukuda, J. Hasegawa, M. Ishida, T. Nakajima, 
 Y. Honda, O. Kitao, H. Nakai, T. Vreven, J. A. Montgomery, Jr., 
 J. E. Peralta, F. Ogliaro, M. Bearpark, J. J. Heyd, E. Brothers, 
 K. N. Kudin, V. N. Staroverov, T. Keith, R. Kobayashi, J. Normand, 
 K. Raghavachari, A. Rendell, J. C. Burant, S. S. Iyengar, J. Tomasi, 
 M. Cossi, N. Rega, J. M. Millam, M. Klene, J. E. Knox, J. B. Cross, 
 V. Bakken, C. Adamo, J. Jaramillo, R. Gomperts, R. E. Stratmann, 
 O. Yazyev, A. J. Austin, R. Cammi, C. Pomelli, J. W. Ochterski, 
 R. L. Martin, K. Morokuma, V. G. Zakrzewski, G. A. Voth, 
 P. Salvador, J. J. Dannenberg, S. Dapprich, A. D. Daniels, 
 O. Farkas, J. B. Foresman, J. V. Ortiz, J. Cioslowski, 
 and D. J. Fox, Gaussian, Inc., Wallingford CT, 2013.
 
 ******************************************
 Gaussian 09:  ES64L-G09RevD.01 24-Apr-2013
                24-Nov-2020 
 ******************************************
 %chk=im1h.chk
 %mem=4GB
 %NPROCSHARED=3
 Will use up to    3 processors via shared memory.
 ---------------------------------------------------------
 # b3lyp/cc-pvdz opt=(tight, maxcycle=200) density=current
 ---------------------------------------------------------
 1/6=200,7=10,14=-1,18=20,19=15,26=3,38=1/1,3;
 2/9=110,12=2,17=6,18=5,40=1/2;
 3/5=16,11=2,16=1,25=1,30=1,71=1,74=-5/1,2,3;
 4//1;
 5/5=2,38=5/2;
 6/7=2,8=2,9=2,10=2,22=-1,28=1/1;
 7//1,2,3,16;
 1/6=200,7=10,14=-1,18=20,19=15,26=3/3(2);
 2/9=110/2;
 99//99;
 2/9=110/2;
 3/5=16,11=2,16=1,25=1,30=1,71=1,74=-5/1,2,3;
 4/5=5,16=3,69=1/1;
 5/5=2,38=5/2;
 7//1,2,3,16;
 1/6=200,7=10,14=-1,18=20,19=15,26=3/3(-5);
 2/9=110/2;
 6/7=2,8=2,9=2,10=2,19=2,22=-1,28=1/1;
 99/9=1/99;
 ----------------------------------------------------------------------
 im1h opt of inital coordinates generqated with avogadro, sorted as in 
 charmm str file /site/raid1/florian/stream/im1h_d_final2.str
 ----------------------------------------------------------------------
 Symbolic Z-matrix:
 Charge =  1 Multiplicity = 1
 C                     0.98734   0.06279  -0.03481 
 N                     2.44434   0.03831  -0.03752 
 C                     3.23947  -1.04842  -0.03819 
 C                     4.55005  -0.61674  -0.04097 
 N                     4.55557   0.73013  -0.04199 
 H                     5.39188   1.35483  -0.04403 
 C                     3.26335   1.10693  -0.03986 
 H                     0.57974  -0.87072  -0.03327 
 H                     0.62127   0.69149  -0.93988 
 H                     0.62467   0.59285   0.87084 
 H                     2.89549  -2.07474  -0.03678 
 H                     5.43553  -1.23839  -0.04217 
 H                     2.92884   2.13669  -0.04 
 

 GradGradGradGradGradGradGradGradGradGradGradGradGradGradGradGradGradGrad
 Berny optimization.
 Initialization pass.
                           ----------------------------
                           !    Initial Parameters    !
                           ! (Angstroms and Degrees)  !
 --------------------------                            --------------------------
 ! Name  Definition              Value          Derivative Info.                !
 --------------------------------------------------------------------------------
 ! R1    R(1,2)                  1.4572         estimate D2E/DX2                !
 ! R2    R(1,8)                  1.0186         estimate D2E/DX2                !
 ! R3    R(1,9)                  1.1612         estimate D2E/DX2                !
 ! R4    R(1,10)                 1.1103         estimate D2E/DX2                !
 ! R5    R(2,3)                  1.3466         estimate D2E/DX2                !
 ! R6    R(2,7)                  1.3464         estimate D2E/DX2                !
 ! R7    R(3,4)                  1.3798         estimate D2E/DX2                !
 ! R8    R(3,11)                 1.0824         estimate D2E/DX2                !
 ! R9    R(4,5)                  1.3469         estimate D2E/DX2                !
 ! R10   R(4,12)                 1.0819         estimate D2E/DX2                !
 ! R11   R(5,6)                  1.0439         estimate D2E/DX2                !
 ! R12   R(5,7)                  1.346          estimate D2E/DX2                !
 ! R13   R(7,13)                 1.0827         estimate D2E/DX2                !
 ! A1    A(2,1,8)              112.6251         estimate D2E/DX2                !
 ! A2    A(2,1,9)              108.8352         estimate D2E/DX2                !
 ! A3    A(2,1,10)             109.642          estimate D2E/DX2                !
 ! A4    A(8,1,9)              111.7903         estimate D2E/DX2                !
 ! A5    A(8,1,10)             107.7933         estimate D2E/DX2                !
 ! A6    A(9,1,10)             105.9213         estimate D2E/DX2                !
 ! A7    A(1,2,3)              127.1545         estimate D2E/DX2                !
 ! A8    A(1,2,7)              126.5047         estimate D2E/DX2                !
 ! A9    A(3,2,7)              106.3408         estimate D2E/DX2                !
 ! A10   A(2,3,4)              107.961          estimate D2E/DX2                !
 ! A11   A(2,3,11)             125.279          estimate D2E/DX2                !
 ! A12   A(4,3,11)             126.76           estimate D2E/DX2                !
 ! A13   A(3,4,5)              108.4658         estimate D2E/DX2                !
 ! A14   A(3,4,12)             126.6984         estimate D2E/DX2                !
 ! A15   A(5,4,12)             124.8358         estimate D2E/DX2                !
 ! A16   A(4,5,6)              126.9935         estimate D2E/DX2                !
 ! A17   A(4,5,7)              106.0213         estimate D2E/DX2                !
 ! A18   A(6,5,7)              126.9852         estimate D2E/DX2                !
 ! A19   A(2,7,5)              111.2111         estimate D2E/DX2                !
 ! A20   A(2,7,13)             124.5367         estimate D2E/DX2                !
 ! A21   A(5,7,13)             124.2522         estimate D2E/DX2                !
 ! D1    D(8,1,2,3)              0.0045         estimate D2E/DX2                !
 ! D2    D(8,1,2,7)           -179.9956         estimate D2E/DX2                !
 ! D3    D(9,1,2,3)           -124.5426         estimate D2E/DX2                !
 ! D4    D(9,1,2,7)             55.4574         estimate D2E/DX2                !
 ! D5    D(10,1,2,3)           120.0222         estimate D2E/DX2                !
 ! D6    D(10,1,2,7)           -59.9779         estimate D2E/DX2                !
 ! D7    D(1,2,3,4)            180.0            estimate D2E/DX2                !
 ! D8    D(1,2,3,11)             0.0005         estimate D2E/DX2                !
 ! D9    D(7,2,3,4)              0.0            estimate D2E/DX2                !
 ! D10   D(7,2,3,11)          -179.9995         estimate D2E/DX2                !
 ! D11   D(1,2,7,5)            179.9997         estimate D2E/DX2                !
 ! D12   D(1,2,7,13)             0.0007         estimate D2E/DX2                !
 ! D13   D(3,2,7,5)             -0.0003         estimate D2E/DX2                !
 ! D14   D(3,2,7,13)          -179.9994         estimate D2E/DX2                !
 ! D15   D(2,3,4,5)              0.0003         estimate D2E/DX2                !
 ! D16   D(2,3,4,12)          -179.9993         estimate D2E/DX2                !
 ! D17   D(11,3,4,5)           179.9997         estimate D2E/DX2                !
 ! D18   D(11,3,4,12)            0.0002         estimate D2E/DX2                !
 ! D19   D(3,4,5,6)           -179.9997         estimate D2E/DX2                !
 ! D20   D(3,4,5,7)             -0.0004         estimate D2E/DX2                !
 ! D21   D(12,4,5,6)            -0.0001         estimate D2E/DX2                !
 ! D22   D(12,4,5,7)           179.9992         estimate D2E/DX2                !
 ! D23   D(4,5,7,2)              0.0005         estimate D2E/DX2                !
 ! D24   D(4,5,7,13)           179.9995         estimate D2E/DX2                !
 ! D25   D(6,5,7,2)            179.9997         estimate D2E/DX2                !
 ! D26   D(6,5,7,13)            -0.0012         estimate D2E/DX2                !
 --------------------------------------------------------------------------------
 Trust Radius=3.00D-01 FncErr=1.00D-07 GrdErr=1.00D-06
 Number of steps in this run=    100 maximum allowed number of steps=    100.
 GradGradGradGradGradGradGradGradGradGradGradGradGradGradGradGradGradGrad

                          Input orientation:                          
 ---------------------------------------------------------------------
 Center     Atomic      Atomic             Coordinates (Angstroms)
 Number     Number       Type             X           Y           Z
 ---------------------------------------------------------------------
      1          6           0        0.987340    0.062790   -0.034810
      2          7           0        2.444340    0.038310   -0.037520
      3          6           0        3.239470   -1.048420   -0.038190
      4          6           0        4.550050   -0.616740   -0.040970
      5          7           0        4.555570    0.730130   -0.041990
      6          1           0        5.391880    1.354830   -0.044030
      7          6           0        3.263350    1.106930   -0.039860
      8          1           0        0.579740   -0.870720   -0.033270
      9          1           0        0.621270    0.691490   -0.939880
     10          1           0        0.624670    0.592850    0.870840
     11          1           0        2.895490   -2.074740   -0.036780
     12          1           0        5.435530   -1.238390   -0.042170
     13          1           0        2.928840    2.136690   -0.040000
 ---------------------------------------------------------------------
                    Distance matrix (angstroms):
                    1          2          3          4          5
     1  C    0.000000
     2  N    1.457208   0.000000
     3  C    2.511352   1.346556   0.000000
     4  C    3.626941   2.205248   1.379846   0.000000
     5  N    3.630105   2.221695   2.212549   1.346882   0.000000
     6  H    4.590144   3.228198   3.226223   2.143776   1.043872
     7  C    2.504092   1.346377   2.155483   2.150962   1.346037
     8  H    1.018617   2.074388   2.665664   3.978433   4.286026
     9  H    1.161216   2.136465   3.270367   4.237312   4.035643
    10  H    1.110268   2.108040   3.218273   4.207507   4.037831
    11  H    2.865323   2.160675   1.082431   2.205301   3.259323
    12  H    4.634600   3.252261   2.204265   1.081908   2.156247
    13  H    2.840864   2.153589   3.200222   3.195262   2.150504
                    6          7          8          9         10
     6  H    0.000000
     7  C    2.142921   0.000000
     8  H    5.301875   3.333602   0.000000
     9  H    4.899111   2.821917   1.806700   0.000000
    10  H    4.913643   2.838360   1.720892   1.813408   0.000000
    11  H    4.241930   3.202867   2.610053   3.693196   3.618900
    12  H    2.593588   3.196701   4.869698   5.263784   5.227944
    13  H    2.584161   1.082729   3.816128   2.867624   2.919293
                   11         12         13
    11  H    0.000000
    12  H    2.674194   0.000000
    13  H    4.211563   4.204125   0.000000
 Stoichiometry    C4H7N2(1+)
 Framework group  C1[X(C4H7N2)]
 Deg. of freedom    33
 Full point group                 C1      NOp   1
 Largest Abelian subgroup         C1      NOp   1
 Largest concise Abelian subgroup C1      NOp   1
                         Standard orientation:                         
 ---------------------------------------------------------------------
 Center     Atomic      Atomic             Coordinates (Angstroms)
 Number     Number       Type             X           Y           Z
 ---------------------------------------------------------------------
      1          6           0        2.117426   -0.019172    0.000017
      2          7           0        0.660776    0.021142   -0.000074
      3          6           0       -0.122497    1.116445   -0.003161
      4          6           0       -1.437694    0.699036   -0.001959
      5          7           0       -1.457853   -0.647689    0.001857
      6          1           0       -2.300906   -1.263261    0.003609
      7          6           0       -0.169803   -1.038510    0.002936
      8          1           0        2.535150    0.909850   -0.002545
      9          1           0        2.474924   -0.655036   -0.903473
     10          1           0        2.476031   -0.549914    0.906885
     11          1           0        0.232620    2.138962   -0.006067
     12          1           0       -2.316366    1.330271   -0.003742
     13          1           0        0.153495   -2.071841    0.005864
 ---------------------------------------------------------------------
 Rotational constants (GHZ):      9.1562074      3.4570351      2.5513881
 Standard basis: CC-pVDZ (5D, 7F)
 There are   125 symmetry adapted cartesian basis functions of A   symmetry.
 There are   119 symmetry adapted basis functions of A   symmetry.
   119 basis functions,   247 primitive gaussians,   125 cartesian basis functions
    22 alpha electrons       22 beta electrons
       nuclear repulsion energy       237.0208232792 Hartrees.
 NAtoms=   13 NActive=   13 NUniq=   13 SFac= 1.00D+00 NAtFMM=   60 NAOKFM=F Big=F
 Integral buffers will be    131072 words long.
 Raffenetti 2 integral format.
 Two-electron integral symmetry is turned on.
 One-electron integrals computed using PRISM.
 NBasis=   119 RedAO= T EigKep=  1.51D-03  NBF=   119
 NBsUse=   119 1.00D-06 EigRej= -1.00D+00 NBFU=   119
 ExpMin= 1.22D-01 ExpMax= 9.05D+03 ExpMxC= 3.09D+02 IAcc=1 IRadAn=         1 AccDes= 0.00D+00
 Harris functional with IExCor=  402 and IRadAn=       1 diagonalized for initial guess.
 HarFok:  IExCor=  402 AccDes= 0.00D+00 IRadAn=         1 IDoV= 1 UseB2=F ITyADJ=14
 ICtDFT=  3500011 ScaDFX=  1.000000  1.000000  1.000000  1.000000
 FoFCou: FMM=F IPFlag=           0 FMFlag=      100000 FMFlg1=           0
         NFxFlg=           0 DoJE=T BraDBF=F KetDBF=T FulRan=T
         wScrn=  0.000000 ICntrl=     500 IOpCl=  0 I1Cent=   200000004 NGrid=           0
         NMat0=    1 NMatS0=      1 NMatT0=    0 NMatD0=    1 NMtDS0=    0 NMtDT0=    0
 Petite list used in FoFCou.
 Keep R1 ints in memory in canonical form, NReq=26560622.
 Requested convergence on RMS density matrix=1.00D-08 within 128 cycles.
 Requested convergence on MAX density matrix=1.00D-06.
 Requested convergence on             energy=1.00D-06.
 No special actions if energy rises.
 Integral accuracy reduced to 1.0D-05 until final iterations.
 Initial convergence to 1.0D-05 achieved.  Increase integral accuracy.
 SCF Done:  E(RB3LYP) =  -265.911620226     A.U. after   14 cycles
            NFock= 14  Conv=0.44D-08     -V/T= 2.0069

 **********************************************************************

            Population analysis using the SCF density.

 **********************************************************************

 Orbital symmetries:
       Occupied  (A) (A) (A) (A) (A) (A) (A) (A) (A) (A) (A) (A)
                 (A) (A) (A) (A) (A) (A) (A) (A) (A) (A)
       Virtual   (A) (A) (A) (A) (A) (A) (A) (A) (A) (A) (A) (A)
                 (A) (A) (A) (A) (A) (A) (A) (A) (A) (A) (A) (A)
                 (A) (A) (A) (A) (A) (A) (A) (A) (A) (A) (A) (A)
                 (A) (A) (A) (A) (A) (A) (A) (A) (A) (A) (A) (A)
                 (A) (A) (A) (A) (A) (A) (A) (A) (A) (A) (A) (A)
                 (A) (A) (A) (A) (A) (A) (A) (A) (A) (A) (A) (A)
                 (A) (A) (A) (A) (A) (A) (A) (A) (A) (A) (A) (A)
                 (A) (A) (A) (A) (A) (A) (A) (A) (A) (A) (A) (A)
                 (A)
 The electronic state is 1-A.
 Alpha  occ. eigenvalues --  -14.61513 -14.61434 -10.47138 -10.41975 -10.41736
 Alpha  occ. eigenvalues --  -10.41097  -1.26425  -1.14566  -0.97240  -0.93469
 Alpha  occ. eigenvalues --   -0.84046  -0.80891  -0.77672  -0.69055  -0.67977
 Alpha  occ. eigenvalues --   -0.65781  -0.64499  -0.62086  -0.60037  -0.59005
 Alpha  occ. eigenvalues --   -0.50925  -0.44013
 Alpha virt. eigenvalues --   -0.20673  -0.15626  -0.13339  -0.09437  -0.06792
 Alpha virt. eigenvalues --   -0.06037  -0.04643  -0.03043  -0.02939  -0.02628
 Alpha virt. eigenvalues --    0.01990   0.05269   0.09058   0.10700   0.17840
 Alpha virt. eigenvalues --    0.20197   0.21560   0.23528   0.27259   0.28367
 Alpha virt. eigenvalues --    0.29586   0.31441   0.31576   0.34491   0.38587
 Alpha virt. eigenvalues --    0.40966   0.42998   0.45464   0.46431   0.49180
 Alpha virt. eigenvalues --    0.50416   0.52008   0.55432   0.57457   0.60804
 Alpha virt. eigenvalues --    0.62076   0.64982   0.66582   0.71691   0.78668
 Alpha virt. eigenvalues --    0.81074   0.85332   0.86134   0.87801   0.89297
 Alpha virt. eigenvalues --    0.89559   0.91015   0.97009   1.03991   1.10948
 Alpha virt. eigenvalues --    1.16422   1.20171   1.22705   1.26836   1.32965
 Alpha virt. eigenvalues --    1.33855   1.34994   1.36408   1.39172   1.40781
 Alpha virt. eigenvalues --    1.43827   1.46442   1.47644   1.49050   1.51350
 Alpha virt. eigenvalues --    1.55176   1.56637   1.58642   1.59359   1.63055
 Alpha virt. eigenvalues --    1.68688   1.69947   1.72339   1.74610   1.80428
 Alpha virt. eigenvalues --    1.80904   1.90915   1.94048   1.94553   1.97461
 Alpha virt. eigenvalues --    2.07118   2.09396   2.10919   2.17951   2.20595
 Alpha virt. eigenvalues --    2.27858   2.30067   2.33367   2.34322   2.35003
 Alpha virt. eigenvalues --    2.42658   2.50924   2.53373   2.56319   2.70833
 Alpha virt. eigenvalues --    3.04053   3.21802
          Condensed to atoms (all electrons):
               1          2          3          4          5          6
     1  C    4.469356   0.356812  -0.045651   0.008779   0.002434  -0.000065
     2  N    0.356812   5.998413   0.455501  -0.052336  -0.038344   0.002556
     3  C   -0.045651   0.455501   4.731650   0.569033  -0.043712   0.008397
     4  C    0.008779  -0.052336   0.569033   4.713915   0.447936  -0.028303
     5  N    0.002434  -0.038344  -0.043712   0.447936   5.840727   0.379168
     6  H   -0.000065   0.002556   0.008397  -0.028303   0.379168   0.490729
     7  C   -0.046675   0.484830  -0.138644  -0.121179   0.477516  -0.024736
     8  H    0.405445  -0.008305  -0.003174   0.000620  -0.000193   0.000010
     9  H    0.388483  -0.019085   0.002426  -0.000448   0.000225  -0.000004
    10  H    0.393941  -0.016491   0.002283  -0.000473   0.000211  -0.000004
    11  H   -0.004882  -0.021768   0.404710  -0.028365   0.002639  -0.000084
    12  H   -0.000056   0.002478  -0.026145   0.404549  -0.023456  -0.004728
    13  H   -0.000105  -0.021440   0.003638   0.003740  -0.020963  -0.002576
               7          8          9         10         11         12
     1  C   -0.046675   0.405445   0.388483   0.393941  -0.004882  -0.000056
     2  N    0.484830  -0.008305  -0.019085  -0.016491  -0.021768   0.002478
     3  C   -0.138644  -0.003174   0.002426   0.002283   0.404710  -0.026145
     4  C   -0.121179   0.000620  -0.000448  -0.000473  -0.028365   0.404549
     5  N    0.477516  -0.000193   0.000225   0.000211   0.002639  -0.023456
     6  H   -0.024736   0.000010  -0.000004  -0.000004  -0.000084  -0.004728
     7  C    4.733943   0.004355  -0.003736  -0.003725   0.005886   0.005524
     8  H    0.004355   0.567397  -0.016279  -0.018464   0.002087  -0.000010
     9  H   -0.003736  -0.016279   0.560254  -0.020402   0.000136   0.000007
    10  H   -0.003725  -0.018464  -0.020402   0.566149   0.000149   0.000007
    11  H    0.005886   0.002087   0.000136   0.000149   0.568903  -0.002697
    12  H    0.005524  -0.000010   0.000007   0.000007  -0.002697   0.571653
    13  H    0.399434  -0.000006   0.000888   0.000699  -0.000251  -0.000243
              13
     1  C   -0.000105
     2  N   -0.021440
     3  C    0.003638
     4  C    0.003740
     5  N   -0.020963
     6  H   -0.002576
     7  C    0.399434
     8  H   -0.000006
     9  H    0.000888
    10  H    0.000699
    11  H   -0.000251
    12  H   -0.000243
    13  H    0.548243
 Mulliken charges:
               1
     1  C    0.072185
     2  N   -0.122822
     3  C    0.079686
     4  C    0.082532
     5  N   -0.024190
     6  H    0.179639
     7  C    0.227207
     8  H    0.066515
     9  H    0.107535
    10  H    0.096119
    11  H    0.073536
    12  H    0.073117
    13  H    0.088942
 Sum of Mulliken charges =   1.00000
 Mulliken charges with hydrogens summed into heavy atoms:
               1
     1  C    0.342354
     2  N   -0.122822
     3  C    0.153222
     4  C    0.155649
     5  N    0.155449
     7  C    0.316149
 Electronic spatial extent (au):  <R**2>=            490.8610
 Charge=              1.0000 electrons
 Dipole moment (field-independent basis, Debye):
    X=             -0.7772    Y=             -1.3195    Z=              0.0292  Tot=              1.5316
 Quadrupole moment (field-independent basis, Debye-Ang):
   XX=            -14.6859   YY=            -23.2693   ZZ=            -35.4395
   XY=              2.2596   XZ=              0.0705   YZ=              0.0655
 Traceless Quadrupole moment (field-independent basis, Debye-Ang):
   XX=              9.7790   YY=              1.1956   ZZ=            -10.9746
   XY=              2.2596   XZ=              0.0705   YZ=              0.0655
 Octapole moment (field-independent basis, Debye-Ang**2):
  XXX=             -9.4340  YYY=             -3.7165  ZZZ=              0.1368  XYY=             -5.5647
  XXY=             -6.0746  XXZ=              0.2694  XZZ=              2.6813  YZZ=             -2.2509
  YYZ=             -0.0735  XYZ=              0.2841
 Hexadecapole moment (field-independent basis, Debye-Ang**3):
 XXXX=           -294.1778 YYYY=           -135.4308 ZZZZ=            -40.2523 XXXY=             16.4944
 XXXZ=              0.8286 YYYX=             10.0599 YYYZ=             -0.0292 ZZZX=              0.3081
 ZZZY=              0.1040 XXYY=            -70.9596 XXZZ=            -73.2224 YYZZ=            -38.6448
 XXYZ=              0.5818 YYXZ=             -0.2175 ZZXY=             -0.2524
 N-N= 2.370208232792D+02 E-N=-1.081670648674D+03  KE= 2.640995420377D+02
 Calling FoFJK, ICntrl=      2127 FMM=F ISym2X=0 I1Cent= 0 IOpClX= 0 NMat=1 NMatS=1 NMatT=0.
 ***** Axes restored to original set *****
 -------------------------------------------------------------------
 Center     Atomic                   Forces (Hartrees/Bohr)
 Number     Number              X              Y              Z
 -------------------------------------------------------------------
      1        6           0.000834512    0.094026976   -0.015799812
      2        7           0.012239161    0.020325742    0.000235216
      3        6           0.028813798   -0.024576036   -0.000068021
      4        6           0.003144211   -0.039835390    0.000090494
      5        7          -0.008930593    0.016519466    0.000043320
      6        1          -0.019166424   -0.010845022    0.000015816
      7        6          -0.009674055    0.028608558    0.000087656
      8        1          -0.019407793   -0.061023223   -0.004623691
      9        1           0.009627525   -0.022693343    0.024035857
     10        1           0.004172100   -0.003328053   -0.003904433
     11        1          -0.004673914   -0.001093543   -0.000035435
     12        1           0.004573778    0.001318058   -0.000026573
     13        1          -0.001552307    0.002595811   -0.000050394
 -------------------------------------------------------------------
 Cartesian Forces:  Max     0.094026976 RMS     0.022555275

 GradGradGradGradGradGradGradGradGradGradGradGradGradGradGradGradGradGrad
 Berny optimization.
 FormGI is forming the generalized inverse of G from B-inverse, IUseBI=4.
 Internal  Forces:  Max     0.063686318 RMS     0.013170107
 Search for a local minimum.
 Step number   1 out of a maximum of  100
 All quantities printed in internal units (Hartrees-Bohrs-Radians)
 Mixed Optimization -- RFO/linear search
 Second derivative matrix not updated -- first step.
 ITU=  0
     Eigenvalues ---    0.00935   0.01706   0.02371   0.02381   0.02383
     Eigenvalues ---    0.02400   0.02401   0.02403   0.07136   0.07736
     Eigenvalues ---    0.16000   0.16000   0.16000   0.16000   0.16000
     Eigenvalues ---    0.16000   0.16000   0.22000   0.23184   0.25000
     Eigenvalues ---    0.27728   0.32572   0.35667   0.35702   0.35765
     Eigenvalues ---    0.37316   0.40738   0.44327   0.44559   0.48226
     Eigenvalues ---    0.52823   0.55729   0.55818
 RFO step:  Lambda=-2.73526618D-02 EMin= 9.35026053D-03
 Linear search not attempted -- first point.
 Iteration  1 RMS(Cart)=  0.04022322 RMS(Int)=  0.00123481
 Iteration  2 RMS(Cart)=  0.00168461 RMS(Int)=  0.00015697
 Iteration  3 RMS(Cart)=  0.00000287 RMS(Int)=  0.00015695
 Iteration  4 RMS(Cart)=  0.00000000 RMS(Int)=  0.00015695
 Variable       Old X    -DE/DX   Delta X   Delta X   Delta X     New X
                                 (Linear)    (Quad)   (Total)
    R1        2.75372   0.00489   0.00000   0.01221   0.01221   2.76593
    R2        1.92491   0.06369   0.00000   0.13466   0.13466   2.05957
    R3        2.19438  -0.03406   0.00000  -0.11180  -0.11180   2.08258
    R4        2.09810  -0.00614   0.00000  -0.01739  -0.01739   2.08072
    R5        2.54462   0.03571   0.00000   0.06254   0.06244   2.60706
    R6        2.54428  -0.00718   0.00000  -0.01307  -0.01322   2.53106
    R7        2.60753  -0.01279   0.00000  -0.02277  -0.02268   2.58485
    R8        2.04550   0.00252   0.00000   0.00656   0.00656   2.05206
    R9        2.54524   0.02976   0.00000   0.05049   0.05065   2.59589
   R10        2.04451   0.00299   0.00000   0.00775   0.00775   2.05226
   R11        1.97263  -0.02184   0.00000  -0.05025  -0.05025   1.92238
   R12        2.54364  -0.00262   0.00000  -0.00642  -0.00641   2.53723
   R13        2.04606   0.00295   0.00000   0.00768   0.00768   2.05374
    A1        1.96568  -0.01026   0.00000  -0.06214  -0.06252   1.90316
    A2        1.89953   0.00348   0.00000   0.01770   0.01718   1.91671
    A3        1.91361  -0.00042   0.00000   0.00556   0.00529   1.91890
    A4        1.95111  -0.00060   0.00000  -0.01772  -0.01834   1.93277
    A5        1.88135   0.00553   0.00000   0.03045   0.03034   1.91169
    A6        1.84867   0.00307   0.00000   0.03234   0.03190   1.88058
    A7        2.21926  -0.00574   0.00000  -0.02200  -0.02189   2.19737
    A8        2.20792  -0.00956   0.00000  -0.03580  -0.03569   2.17224
    A9        1.85600   0.01530   0.00000   0.05780   0.05758   1.91358
   A10        1.88428  -0.00463   0.00000  -0.01063  -0.01064   1.87364
   A11        2.18653  -0.00186   0.00000  -0.01696  -0.01696   2.16957
   A12        2.21238   0.00649   0.00000   0.02759   0.02760   2.23998
   A13        1.89308  -0.01345   0.00000  -0.05045  -0.05023   1.84285
   A14        2.21130   0.01052   0.00000   0.04548   0.04536   2.25667
   A15        2.17880   0.00293   0.00000   0.00498   0.00487   2.18366
   A16        2.21646  -0.00836   0.00000  -0.02837  -0.02844   2.18801
   A17        1.85042   0.02222   0.00000   0.08608   0.08622   1.93664
   A18        2.21631  -0.01386   0.00000  -0.05770  -0.05777   2.15854
   A19        1.94100  -0.01944   0.00000  -0.08279  -0.08293   1.85807
   A20        2.17358   0.00903   0.00000   0.03770   0.03776   2.21134
   A21        2.16861   0.01041   0.00000   0.04509   0.04516   2.21377
    D1        0.00008  -0.00177   0.00000  -0.01765  -0.01744  -0.01737
    D2       -3.14152  -0.00176   0.00000  -0.01743  -0.01724   3.12443
    D3       -2.17368   0.00361   0.00000   0.03567   0.03560  -2.13807
    D4        0.96791   0.00362   0.00000   0.03589   0.03581   1.00373
    D5        2.09478  -0.00177   0.00000  -0.01588  -0.01601   2.07877
    D6       -1.04681  -0.00176   0.00000  -0.01566  -0.01580  -1.06261
    D7        3.14159   0.00003   0.00000   0.00059   0.00060  -3.14099
    D8        0.00001   0.00003   0.00000   0.00066   0.00067   0.00068
    D9        0.00000   0.00002   0.00000   0.00041   0.00042   0.00042
   D10       -3.14158   0.00002   0.00000   0.00047   0.00049  -3.14110
   D11        3.14159  -0.00002   0.00000  -0.00048  -0.00048   3.14111
   D12        0.00001  -0.00004   0.00000  -0.00075  -0.00075  -0.00074
   D13       -0.00001  -0.00002   0.00000  -0.00030  -0.00030  -0.00030
   D14       -3.14158  -0.00003   0.00000  -0.00057  -0.00057   3.14103
   D15        0.00000  -0.00002   0.00000  -0.00038  -0.00036  -0.00035
   D16       -3.14158   0.00001   0.00000   0.00016   0.00017  -3.14141
   D17        3.14159  -0.00002   0.00000  -0.00044  -0.00043   3.14116
   D18        0.00000   0.00000   0.00000   0.00009   0.00010   0.00010
   D19       -3.14159   0.00003   0.00000   0.00054   0.00053  -3.14105
   D20       -0.00001   0.00001   0.00000   0.00019   0.00019   0.00018
   D21        0.00000   0.00000   0.00000   0.00002   0.00003   0.00003
   D22        3.14158  -0.00002   0.00000  -0.00033  -0.00032   3.14126
   D23        0.00001   0.00000   0.00000   0.00007   0.00007   0.00007
   D24        3.14158   0.00002   0.00000   0.00034   0.00034  -3.14126
   D25        3.14159  -0.00001   0.00000  -0.00028  -0.00027   3.14131
   D26       -0.00002   0.00000   0.00000  -0.00001   0.00000  -0.00002
         Item               Value     Threshold  Converged?
 Maximum Force            0.063686     0.000015     NO 
 RMS     Force            0.013170     0.000010     NO 
 Maximum Displacement     0.122305     0.000060     NO 
 RMS     Displacement     0.040792     0.000040     NO 
 Predicted change in Energy=-1.482237D-02
 GradGradGradGradGradGradGradGradGradGradGradGradGradGradGradGradGradGrad

                          Input orientation:                          
 ---------------------------------------------------------------------
 Center     Atomic      Atomic             Coordinates (Angstroms)
 Number     Number       Type             X           Y           Z
 ---------------------------------------------------------------------
      1          6           0        1.003066    0.101317   -0.036772
      2          7           0        2.466390    0.069631   -0.038880
      3          6           0        3.250969   -1.065149   -0.039509
      4          6           0        4.556872   -0.658197   -0.040802
      5          7           0        4.515626    0.714867   -0.041378
      6          1           0        5.327159    1.328279   -0.042790
      7          6           0        3.247980    1.157314   -0.040271
      8          1           0        0.625220   -0.920826   -0.053656
      9          1           0        0.640289    0.665984   -0.910883
     10          1           0        0.639767    0.613182    0.867860
     11          1           0        2.861234   -2.078702   -0.039098
     12          1           0        5.463587   -1.255931   -0.041762
     13          1           0        2.919381    2.193240   -0.040687
 ---------------------------------------------------------------------
                    Distance matrix (angstroms):
                    1          2          3          4          5
     1  C    0.000000
     2  N    1.463669   0.000000
     3  C    2.532532   1.379597   0.000000
     4  C    3.634063   2.213560   1.367843   0.000000
     5  N    3.565746   2.148419   2.183533   1.373684   0.000000
     6  H    4.494803   3.125413   3.168449   2.130594   1.017281
     7  C    2.480883   1.339380   2.222465   2.238142   1.342642
     8  H    1.089875   2.090725   2.629750   3.940434   4.220296
     9  H    1.102055   2.109662   3.251425   4.224940   3.971986
    10  H    1.101068   2.110492   3.233958   4.217319   3.982378
    11  H    2.864486   2.184315   1.085902   2.212018   3.246697
    12  H    4.662446   3.277242   2.220830   1.086012   2.186933
    13  H    2.836973   2.171387   3.275217   3.288171   2.175681
                    6          7          8          9         10
     6  H    0.000000
     7  C    2.086198   0.000000
     8  H    5.212180   3.346298   0.000000
     9  H    4.812377   2.792745   1.803616   0.000000
    10  H    4.828280   2.814881   1.789577   1.779526   0.000000
    11  H    4.205747   3.259044   2.518065   3.636744   3.606068
    12  H    2.587809   3.276076   4.849973   5.264346   5.252641
    13  H    2.558429   1.086794   3.867912   2.878196   2.918677
                   11         12         13
    11  H    0.000000
    12  H    2.729322   0.000000
    13  H    4.272338   4.285997   0.000000
 Stoichiometry    C4H7N2(1+)
 Framework group  C1[X(C4H7N2)]
 Deg. of freedom    33
 Full point group                 C1      NOp   1
 Largest Abelian subgroup         C1      NOp   1
 Largest concise Abelian subgroup C1      NOp   1
                         Standard orientation:                         
 ---------------------------------------------------------------------
 Center     Atomic      Atomic             Coordinates (Angstroms)
 Number     Number       Type             X           Y           Z
 ---------------------------------------------------------------------
      1          6           0        2.101637    0.012111   -0.000883
      2          7           0        0.637971    0.015078   -0.000648
      3          6           0       -0.168723    1.134243   -0.000885
      4          6           0       -1.466390    0.701746    0.000248
      5          7           0       -1.398210   -0.670245    0.000666
      6          1           0       -2.197551   -1.299462    0.001040
      7          6           0       -0.122126   -1.087733    0.000065
      8          1           0        2.459326    1.041457   -0.019168
      9          1           0        2.474024   -0.546032   -0.875143
     10          1           0        2.476359   -0.491800    0.903555
     11          1           0        0.201048    2.155248   -0.001887
     12          1           0       -2.384660    1.281573    0.000294
     13          1           0        0.226736   -2.117012   -0.000083
 ---------------------------------------------------------------------
 Rotational constants (GHZ):      8.7696874      3.5339375      2.5595920
 Standard basis: CC-pVDZ (5D, 7F)
 There are   125 symmetry adapted cartesian basis functions of A   symmetry.
 There are   119 symmetry adapted basis functions of A   symmetry.
   119 basis functions,   247 primitive gaussians,   125 cartesian basis functions
    22 alpha electrons       22 beta electrons
       nuclear repulsion energy       236.5259926869 Hartrees.
 NAtoms=   13 NActive=   13 NUniq=   13 SFac= 1.00D+00 NAtFMM=   60 NAOKFM=F Big=F
 Integral buffers will be    131072 words long.
 Raffenetti 2 integral format.
 Two-electron integral symmetry is turned on.
 One-electron integrals computed using PRISM.
 NBasis=   119 RedAO= T EigKep=  1.45D-03  NBF=   119
 NBsUse=   119 1.00D-06 EigRej= -1.00D+00 NBFU=   119
 Initial guess from the checkpoint file:  "im1h.chk"
 B after Tr=     0.000000    0.000000    0.000000
         Rot=    0.999918   -0.001306   -0.000050   -0.012729 Ang=  -1.47 deg.
 ExpMin= 1.22D-01 ExpMax= 9.05D+03 ExpMxC= 3.09D+02 IAcc=1 IRadAn=         1 AccDes= 0.00D+00
 Harris functional with IExCor=  402 and IRadAn=       1 diagonalized for initial guess.
 HarFok:  IExCor=  402 AccDes= 0.00D+00 IRadAn=         1 IDoV= 1 UseB2=F ITyADJ=14
 ICtDFT=  3500011 ScaDFX=  1.000000  1.000000  1.000000  1.000000
 FoFCou: FMM=F IPFlag=           0 FMFlag=      100000 FMFlg1=           0
         NFxFlg=           0 DoJE=T BraDBF=F KetDBF=T FulRan=T
         wScrn=  0.000000 ICntrl=     500 IOpCl=  0 I1Cent=   200000004 NGrid=           0
         NMat0=    1 NMatS0=      1 NMatT0=    0 NMatD0=    1 NMtDS0=    0 NMtDT0=    0
 Petite list used in FoFCou.
 Keep R1 ints in memory in canonical form, NReq=26560622.
 Requested convergence on RMS density matrix=1.00D-08 within 128 cycles.
 Requested convergence on MAX density matrix=1.00D-06.
 Requested convergence on             energy=1.00D-06.
 No special actions if energy rises.
 Integral accuracy reduced to 1.0D-05 until final iterations.
 Initial convergence to 1.0D-05 achieved.  Increase integral accuracy.
 SCF Done:  E(RB3LYP) =  -265.924497818     A.U. after   12 cycles
            NFock= 12  Conv=0.31D-08     -V/T= 2.0073
 Calling FoFJK, ICntrl=      2127 FMM=F ISym2X=0 I1Cent= 0 IOpClX= 0 NMat=1 NMatS=1 NMatT=0.
 ***** Axes restored to original set *****
 -------------------------------------------------------------------
 Center     Atomic                   Forces (Hartrees/Bohr)
 Number     Number              X              Y              Z
 -------------------------------------------------------------------
      1        6          -0.006481182    0.009337955    0.000830186
      2        7          -0.006042892    0.001478542   -0.000059311
      3        6           0.004946206   -0.002420543    0.000063444
      4        6          -0.006279295   -0.002549884    0.000000175
      5        7           0.008962037    0.010744213    0.000012661
      6        1           0.000175288   -0.000129930   -0.000006836
      7        6           0.005633256   -0.011716276    0.000005925
      8        1          -0.001455168   -0.003100535   -0.001182675
      9        1           0.000951667   -0.004074188   -0.000151077
     10        1           0.001353950   -0.002512644    0.000493004
     11        1          -0.003951700    0.001774492    0.000001540
     12        1           0.001702457    0.003725961   -0.000008382
     13        1           0.000485376   -0.000557165    0.000001346
 -------------------------------------------------------------------
 Cartesian Forces:  Max     0.011716276 RMS     0.004190359

 GradGradGradGradGradGradGradGradGradGradGradGradGradGradGradGradGradGrad
 Berny optimization.
 Using GEDIIS/GDIIS optimizer.
 FormGI is forming the generalized inverse of G from B-inverse, IUseBI=4.
 Internal  Forces:  Max     0.008243691 RMS     0.002567476
 Search for a local minimum.
 Step number   2 out of a maximum of  100
 All quantities printed in internal units (Hartrees-Bohrs-Radians)
 Mixed Optimization -- RFO/linear search
 Update second derivatives using D2CorX and points    1    2
 DE= -1.29D-02 DEPred=-1.48D-02 R= 8.69D-01
 TightC=F SS=  1.41D+00  RLast= 2.90D-01 DXNew= 5.0454D-01 8.6891D-01
 Trust test= 8.69D-01 RLast= 2.90D-01 DXMaxT set to 5.05D-01
 ITU=  1  0
 Use linear search instead of GDIIS.
     Eigenvalues ---    0.00935   0.01730   0.02370   0.02380   0.02385
     Eigenvalues ---    0.02399   0.02401   0.02403   0.07487   0.07616
     Eigenvalues ---    0.15413   0.16000   0.16000   0.16000   0.16000
     Eigenvalues ---    0.16000   0.16125   0.22603   0.24956   0.25695
     Eigenvalues ---    0.29397   0.32528   0.35679   0.35710   0.35790
     Eigenvalues ---    0.36935   0.40936   0.43487   0.45307   0.47650
     Eigenvalues ---    0.53437   0.55272   0.56175
 RFO step:  Lambda=-1.66850224D-03 EMin= 9.35035773D-03
 Quartic linear search produced a step of -0.04301.
 Iteration  1 RMS(Cart)=  0.01527386 RMS(Int)=  0.00014960
 Iteration  2 RMS(Cart)=  0.00016322 RMS(Int)=  0.00002943
 Iteration  3 RMS(Cart)=  0.00000001 RMS(Int)=  0.00002943
 Variable       Old X    -DE/DX   Delta X   Delta X   Delta X     New X
                                 (Linear)    (Quad)   (Total)
    R1        2.76593   0.00562  -0.00053   0.01563   0.01510   2.78103
    R2        2.05957   0.00343  -0.00579   0.02141   0.01562   2.07518
    R3        2.08258  -0.00228   0.00481  -0.01956  -0.01476   2.06783
    R4        2.08072  -0.00121   0.00075  -0.00536  -0.00461   2.07611
    R5        2.60706   0.00032  -0.00269   0.00704   0.00434   2.61140
    R6        2.53106   0.00195   0.00057   0.00151   0.00212   2.53318
    R7        2.58485   0.00345   0.00098   0.00480   0.00574   2.59058
    R8        2.05206  -0.00024  -0.00028   0.00005  -0.00023   2.05183
    R9        2.59589   0.00143  -0.00218   0.00801   0.00582   2.60170
   R10        2.05226  -0.00063  -0.00033  -0.00086  -0.00120   2.05107
   R11        1.92238   0.00006   0.00216  -0.00511  -0.00295   1.91943
   R12        2.53723  -0.00122   0.00028  -0.00300  -0.00269   2.53454
   R13        2.05374  -0.00068  -0.00033  -0.00101  -0.00134   2.05240
    A1        1.90316  -0.00025   0.00269  -0.01420  -0.01157   1.89159
    A2        1.91671  -0.00002  -0.00074   0.00319   0.00237   1.91908
    A3        1.91890  -0.00085  -0.00023  -0.00002  -0.00031   1.91860
    A4        1.93277  -0.00159   0.00079  -0.02023  -0.01952   1.91325
    A5        1.91169  -0.00004  -0.00130  -0.00003  -0.00137   1.91031
    A6        1.88058   0.00277  -0.00137   0.03176   0.03031   1.91089
    A7        2.19737   0.00115   0.00094   0.00279   0.00372   2.20109
    A8        2.17224   0.00402   0.00153   0.01223   0.01376   2.18599
    A9        1.91358  -0.00517  -0.00248  -0.01503  -0.01748   1.89610
   A10        1.87364   0.00030   0.00046   0.00056   0.00097   1.87460
   A11        2.16957  -0.00459   0.00073  -0.02892  -0.02816   2.14141
   A12        2.23998   0.00429  -0.00119   0.02835   0.02719   2.26717
   A13        1.84285   0.00336   0.00216   0.01030   0.01241   1.85527
   A14        2.25667   0.00247  -0.00195   0.02156   0.01963   2.27630
   A15        2.18366  -0.00583  -0.00021  -0.03186  -0.03204   2.15162
   A16        2.18801   0.00317   0.00122   0.01060   0.01181   2.19983
   A17        1.93664  -0.00674  -0.00371  -0.02050  -0.02419   1.91245
   A18        2.15854   0.00357   0.00248   0.00990   0.01238   2.17091
   A19        1.85807   0.00824   0.00357   0.02466   0.02829   1.88637
   A20        2.21134  -0.00382  -0.00162  -0.01092  -0.01258   2.19876
   A21        2.21377  -0.00443  -0.00194  -0.01374  -0.01571   2.19806
    D1       -0.01737  -0.00049   0.00075  -0.00916  -0.00840  -0.02577
    D2        3.12443  -0.00046   0.00074  -0.00782  -0.00706   3.11738
    D3       -2.13807   0.00164  -0.00153   0.02280   0.02126  -2.11681
    D4        1.00373   0.00167  -0.00154   0.02414   0.02261   1.02633
    D5        2.07877  -0.00122   0.00069  -0.01801  -0.01735   2.06142
    D6       -1.06261  -0.00119   0.00068  -0.01667  -0.01601  -1.07862
    D7       -3.14099   0.00001  -0.00003   0.00064   0.00061  -3.14038
    D8        0.00068   0.00002  -0.00003   0.00090   0.00086   0.00154
    D9        0.00042  -0.00001  -0.00002  -0.00053  -0.00054  -0.00012
   D10       -3.14110  -0.00001  -0.00002  -0.00028  -0.00030  -3.14139
   D11        3.14111  -0.00002   0.00002  -0.00081  -0.00079   3.14032
   D12       -0.00074  -0.00001   0.00003  -0.00077  -0.00074  -0.00147
   D13       -0.00030   0.00001   0.00001   0.00034   0.00035   0.00005
   D14        3.14103   0.00001   0.00002   0.00039   0.00041   3.14144
   D15       -0.00035   0.00001   0.00002   0.00048   0.00050   0.00015
   D16       -3.14141   0.00001  -0.00001   0.00032   0.00031  -3.14110
   D17        3.14116   0.00000   0.00002   0.00021   0.00023   3.14138
   D18        0.00010   0.00000   0.00000   0.00005   0.00004   0.00014
   D19       -3.14105   0.00000  -0.00002  -0.00009  -0.00011  -3.14116
   D20        0.00018  -0.00001  -0.00001  -0.00029  -0.00030  -0.00012
   D21        0.00003   0.00000   0.00000   0.00009   0.00008   0.00011
   D22        3.14126   0.00000   0.00001  -0.00012  -0.00011   3.14116
   D23        0.00007   0.00000   0.00000  -0.00002  -0.00003   0.00005
   D24       -3.14126   0.00000  -0.00001  -0.00007  -0.00009  -3.14135
   D25        3.14131   0.00000   0.00001  -0.00022  -0.00021   3.14110
   D26       -0.00002  -0.00001   0.00000  -0.00027  -0.00027  -0.00029
         Item               Value     Threshold  Converged?
 Maximum Force            0.008244     0.000015     NO 
 RMS     Force            0.002567     0.000010     NO 
 Maximum Displacement     0.055733     0.000060     NO 
 RMS     Displacement     0.015251     0.000040     NO 
 Predicted change in Energy=-8.703785D-04
 GradGradGradGradGradGradGradGradGradGradGradGradGradGradGradGradGradGrad

                          Input orientation:                          
 ---------------------------------------------------------------------
 Center     Atomic      Atomic             Coordinates (Angstroms)
 Number     Number       Type             X           Y           Z
 ---------------------------------------------------------------------
      1          6           0        0.990388    0.107150   -0.035534
      2          7           0        2.461610    0.071409   -0.038738
      3          6           0        3.248728   -1.064406   -0.039004
      4          6           0        4.557481   -0.656400   -0.040840
      5          7           0        4.533066    0.720145   -0.041450
      6          1           0        5.343647    1.332223   -0.043107
      7          6           0        3.261597    1.147031   -0.040204
      8          1           0        0.618866   -0.925939   -0.060221
      9          1           0        0.628077    0.649030   -0.914437
     10          1           0        0.629883    0.603939    0.875633
     11          1           0        2.831742   -2.066925   -0.038186
     12          1           0        5.475288   -1.235776   -0.042010
     13          1           0        2.937167    2.183529   -0.040532
 ---------------------------------------------------------------------
                    Distance matrix (angstroms):
                    1          2          3          4          5
     1  C    0.000000
     2  N    1.471660   0.000000
     3  C    2.544142   1.381894   0.000000
     4  C    3.647902   2.218645   1.370878   0.000000
     5  N    3.595326   2.170667   2.198671   1.376762   0.000000
     6  H    4.522359   3.145760   3.183164   2.138384   1.015719
     7  C    2.497952   1.340501   2.211475   2.220738   1.341218
     8  H    1.098140   2.095441   2.633590   3.947875   4.246282
     9  H    1.094246   2.112425   3.251163   4.231730   4.002013
    10  H    1.098630   2.115393   3.237018   4.225447   4.011157
    11  H    2.849068   2.170131   1.085781   2.228847   3.265313
    12  H    4.681647   3.284965   2.233146   1.085379   2.171039
    13  H    2.846283   2.164996   3.262845   3.269650   2.165268
                    6          7          8          9         10
     6  H    0.000000
     7  C    2.090272   0.000000
     8  H    5.236712   3.358814   0.000000
     9  H    4.843818   2.819169   1.791731   0.000000
    10  H    4.857371   2.838948   1.793452   1.790639   0.000000
    11  H    4.226570   3.242574   2.489810   3.605602   3.580050
    12  H    2.571371   3.252414   4.866329   5.273431   5.263512
    13  H    2.552621   1.086086   3.878621   2.906939   2.942452
                   11         12         13
    11  H    0.000000
    12  H    2.771129   0.000000
    13  H    4.251761   4.258368   0.000000
 Stoichiometry    C4H7N2(1+)
 Framework group  C1[X(C4H7N2)]
 Deg. of freedom    33
 Full point group                 C1      NOp   1
 Largest Abelian subgroup         C1      NOp   1
 Largest concise Abelian subgroup C1      NOp   1
                         Standard orientation:                         
 ---------------------------------------------------------------------
 Center     Atomic      Atomic             Coordinates (Angstroms)
 Number     Number       Type             X           Y           Z
 ---------------------------------------------------------------------
      1          6           0        2.116016   -0.009704   -0.000116
      2          7           0        0.644474    0.008978   -0.000793
      3          6           0       -0.155757    1.135593   -0.000205
      4          6           0       -1.459693    0.712442    0.000403
      5          7           0       -1.419323   -0.663728    0.000364
      6          1           0       -2.222756   -1.285162    0.000381
      7          6           0       -0.142990   -1.075845   -0.000398
      8          1           0        2.475493    1.027611   -0.025905
      9          1           0        2.483069   -0.547758   -0.879403
     10          1           0        2.483825   -0.501857    0.910648
     11          1           0        0.249580    2.142878   -0.000555
     12          1           0       -2.384155    1.281139    0.000561
     13          1           0        0.193432   -2.108513   -0.000825
 ---------------------------------------------------------------------
 Rotational constants (GHZ):      8.8215010      3.4910367      2.5418606
 Standard basis: CC-pVDZ (5D, 7F)
 There are   125 symmetry adapted cartesian basis functions of A   symmetry.
 There are   119 symmetry adapted basis functions of A   symmetry.
   119 basis functions,   247 primitive gaussians,   125 cartesian basis functions
    22 alpha electrons       22 beta electrons
       nuclear repulsion energy       236.0446952789 Hartrees.
 NAtoms=   13 NActive=   13 NUniq=   13 SFac= 1.00D+00 NAtFMM=   60 NAOKFM=F Big=F
 Integral buffers will be    131072 words long.
 Raffenetti 2 integral format.
 Two-electron integral symmetry is turned on.
 One-electron integrals computed using PRISM.
 NBasis=   119 RedAO= T EigKep=  1.46D-03  NBF=   119
 NBsUse=   119 1.00D-06 EigRej= -1.00D+00 NBFU=   119
 Initial guess from the checkpoint file:  "im1h.chk"
 B after Tr=     0.000000    0.000000    0.000000
         Rot=    0.999989   -0.000196    0.000020    0.004709 Ang=  -0.54 deg.
 ExpMin= 1.22D-01 ExpMax= 9.05D+03 ExpMxC= 3.09D+02 IAcc=1 IRadAn=         1 AccDes= 0.00D+00
 Harris functional with IExCor=  402 and IRadAn=       1 diagonalized for initial guess.
 HarFok:  IExCor=  402 AccDes= 0.00D+00 IRadAn=         1 IDoV= 1 UseB2=F ITyADJ=14
 ICtDFT=  3500011 ScaDFX=  1.000000  1.000000  1.000000  1.000000
 FoFCou: FMM=F IPFlag=           0 FMFlag=      100000 FMFlg1=           0
         NFxFlg=           0 DoJE=T BraDBF=F KetDBF=T FulRan=T
         wScrn=  0.000000 ICntrl=     500 IOpCl=  0 I1Cent=   200000004 NGrid=           0
         NMat0=    1 NMatS0=      1 NMatT0=    0 NMatD0=    1 NMtDS0=    0 NMtDT0=    0
 Petite list used in FoFCou.
 Keep R1 ints in memory in canonical form, NReq=26560622.
 Requested convergence on RMS density matrix=1.00D-08 within 128 cycles.
 Requested convergence on MAX density matrix=1.00D-06.
 Requested convergence on             energy=1.00D-06.
 No special actions if energy rises.
 Integral accuracy reduced to 1.0D-05 until final iterations.
 Initial convergence to 1.0D-05 achieved.  Increase integral accuracy.
 SCF Done:  E(RB3LYP) =  -265.925373729     A.U. after   11 cycles
            NFock= 11  Conv=0.45D-08     -V/T= 2.0074
 Calling FoFJK, ICntrl=      2127 FMM=F ISym2X=0 I1Cent= 0 IOpClX= 0 NMat=1 NMatS=1 NMatT=0.
 ***** Axes restored to original set *****
 -------------------------------------------------------------------
 Center     Atomic                   Forces (Hartrees/Bohr)
 Number     Number              X              Y              Z
 -------------------------------------------------------------------
      1        6          -0.001439162   -0.001677397    0.002477380
      2        7           0.001311843    0.003052863   -0.000105752
      3        6           0.004879881   -0.000964172    0.000009063
      4        6          -0.003065918   -0.003746350    0.000029219
      5        7          -0.002906352    0.000680438    0.000010494
      6        1           0.000884595    0.000562685   -0.000006452
      7        6          -0.000180580   -0.001034169   -0.000019018
      8        1           0.000519743    0.001620009   -0.000108308
      9        1          -0.000240341    0.000551491   -0.002759595
     10        1           0.000663681   -0.000742898    0.000473061
     11        1          -0.000856599    0.000598070    0.000001465
     12        1           0.000492101    0.000912056    0.000000134
     13        1          -0.000062892    0.000187373   -0.000001689
 -------------------------------------------------------------------
 Cartesian Forces:  Max     0.004879881 RMS     0.001566222

 GradGradGradGradGradGradGradGradGradGradGradGradGradGradGradGradGradGrad
 Berny optimization.
 Using GEDIIS/GDIIS optimizer.
 FormGI is forming the generalized inverse of G from B-inverse, IUseBI=4.
 Internal  Forces:  Max     0.003235707 RMS     0.000860202
 Search for a local minimum.
 Step number   3 out of a maximum of  100
 All quantities printed in internal units (Hartrees-Bohrs-Radians)
 Mixed Optimization -- En-DIIS/RFO-DIIS
 Update second derivatives using D2CorX and points    1    2    3
 DE= -8.76D-04 DEPred=-8.70D-04 R= 1.01D+00
 TightC=F SS=  1.41D+00  RLast= 9.80D-02 DXNew= 8.4853D-01 2.9390D-01
 Trust test= 1.01D+00 RLast= 9.80D-02 DXMaxT set to 5.05D-01
 ITU=  1  1  0
 Use linear search instead of GDIIS.
     Eigenvalues ---    0.00935   0.01722   0.02369   0.02379   0.02385
     Eigenvalues ---    0.02399   0.02401   0.02403   0.06833   0.07724
     Eigenvalues ---    0.13374   0.16000   0.16000   0.16000   0.16000
     Eigenvalues ---    0.16059   0.16150   0.22629   0.24955   0.28677
     Eigenvalues ---    0.29727   0.32508   0.35700   0.35706   0.35788
     Eigenvalues ---    0.36646   0.40948   0.44865   0.45216   0.47821
     Eigenvalues ---    0.55079   0.55219   0.58048
 RFO step:  Lambda=-1.52547997D-04 EMin= 9.34933224D-03
 Quartic linear search produced a step of  0.02047.
 Iteration  1 RMS(Cart)=  0.00429198 RMS(Int)=  0.00002268
 Iteration  2 RMS(Cart)=  0.00002194 RMS(Int)=  0.00000492
 Iteration  3 RMS(Cart)=  0.00000000 RMS(Int)=  0.00000492
 Variable       Old X    -DE/DX   Delta X   Delta X   Delta X     New X
                                 (Linear)    (Quad)   (Total)
    R1        2.78103   0.00049   0.00031   0.00258   0.00289   2.78392
    R2        2.07518  -0.00170   0.00032  -0.00203  -0.00171   2.07348
    R3        2.06783   0.00257  -0.00030   0.00785   0.00755   2.07537
    R4        2.07611  -0.00016  -0.00009  -0.00095  -0.00104   2.07507
    R5        2.61140   0.00187   0.00009   0.00414   0.00423   2.61563
    R6        2.53318  -0.00208   0.00004  -0.00381  -0.00377   2.52941
    R7        2.59058  -0.00324   0.00012  -0.00634  -0.00622   2.58437
    R8        2.05183  -0.00022   0.00000  -0.00063  -0.00063   2.05120
    R9        2.60170   0.00163   0.00012   0.00375   0.00387   2.60557
   R10        2.05107  -0.00007  -0.00002  -0.00026  -0.00028   2.05079
   R11        1.91943   0.00104  -0.00006   0.00215   0.00209   1.92152
   R12        2.53454  -0.00138  -0.00006  -0.00286  -0.00291   2.53162
   R13        2.05240   0.00020  -0.00003   0.00050   0.00047   2.05288
    A1        1.89159   0.00012  -0.00024  -0.00207  -0.00232   1.88927
    A2        1.91908  -0.00075   0.00005  -0.00398  -0.00394   1.91514
    A3        1.91860  -0.00068  -0.00001  -0.00331  -0.00332   1.91528
    A4        1.91325  -0.00008  -0.00040  -0.00419  -0.00461   1.90864
    A5        1.91031   0.00006  -0.00003  -0.00076  -0.00080   1.90952
    A6        1.91089   0.00131   0.00062   0.01409   0.01471   1.92560
    A7        2.20109  -0.00046   0.00008  -0.00170  -0.00163   2.19947
    A8        2.18599  -0.00014   0.00028   0.00032   0.00060   2.18660
    A9        1.89610   0.00060  -0.00036   0.00138   0.00103   1.89712
   A10        1.87460  -0.00011   0.00002  -0.00013  -0.00011   1.87449
   A11        2.14141  -0.00099  -0.00058  -0.00890  -0.00948   2.13193
   A12        2.26717   0.00111   0.00056   0.00903   0.00959   2.27676
   A13        1.85527  -0.00056   0.00025  -0.00154  -0.00129   1.85398
   A14        2.27630   0.00134   0.00040   0.00964   0.01004   2.28634
   A15        2.15162  -0.00078  -0.00066  -0.00810  -0.00875   2.14287
   A16        2.19983  -0.00048   0.00024  -0.00159  -0.00135   2.19848
   A17        1.91245   0.00080  -0.00050   0.00219   0.00169   1.91414
   A18        2.17091  -0.00031   0.00025  -0.00060  -0.00034   2.17057
   A19        1.88637  -0.00073   0.00058  -0.00190  -0.00132   1.88505
   A20        2.19876   0.00036  -0.00026   0.00104   0.00078   2.19955
   A21        2.19806   0.00037  -0.00032   0.00086   0.00053   2.19859
    D1       -0.02577  -0.00009  -0.00017  -0.00396  -0.00412  -0.02989
    D2        3.11738  -0.00008  -0.00014  -0.00308  -0.00322   3.11416
    D3       -2.11681   0.00037   0.00044   0.00475   0.00518  -2.11163
    D4        1.02633   0.00038   0.00046   0.00563   0.00608   1.03241
    D5        2.06142  -0.00035  -0.00036  -0.00808  -0.00843   2.05300
    D6       -1.07862  -0.00033  -0.00033  -0.00720  -0.00752  -1.08614
    D7       -3.14038   0.00002   0.00001   0.00098   0.00099  -3.13939
    D8        0.00154   0.00001   0.00002   0.00060   0.00062   0.00216
    D9       -0.00012   0.00001  -0.00001   0.00023   0.00022   0.00009
   D10       -3.14139   0.00000  -0.00001  -0.00015  -0.00016  -3.14155
   D11        3.14032  -0.00002  -0.00002  -0.00085  -0.00087   3.13945
   D12       -0.00147  -0.00001  -0.00002  -0.00064  -0.00065  -0.00213
   D13        0.00005   0.00000   0.00001  -0.00010  -0.00010  -0.00005
   D14        3.14144   0.00000   0.00001   0.00011   0.00012   3.14156
   D15        0.00015  -0.00001   0.00001  -0.00026  -0.00025  -0.00010
   D16       -3.14110   0.00000   0.00001  -0.00016  -0.00015  -3.14125
   D17        3.14138   0.00000   0.00000   0.00015   0.00016   3.14155
   D18        0.00014   0.00001   0.00000   0.00025   0.00025   0.00039
   D19       -3.14116   0.00000   0.00000   0.00011   0.00011  -3.14106
   D20       -0.00012   0.00001  -0.00001   0.00020   0.00019   0.00007
   D21        0.00011   0.00000   0.00000   0.00003   0.00003   0.00014
   D22        3.14116   0.00000   0.00000   0.00012   0.00012   3.14127
   D23        0.00005   0.00000   0.00000  -0.00006  -0.00006  -0.00002
   D24       -3.14135  -0.00001   0.00000  -0.00028  -0.00028   3.14156
   D25        3.14110   0.00000   0.00000   0.00003   0.00002   3.14112
   D26       -0.00029   0.00000  -0.00001  -0.00019  -0.00019  -0.00049
         Item               Value     Threshold  Converged?
 Maximum Force            0.003236     0.000015     NO 
 RMS     Force            0.000860     0.000010     NO 
 Maximum Displacement     0.017628     0.000060     NO 
 RMS     Displacement     0.004292     0.000040     NO 
 Predicted change in Energy=-7.661531D-05
 GradGradGradGradGradGradGradGradGradGradGradGradGradGradGradGradGradGrad

                          Input orientation:                          
 ---------------------------------------------------------------------
 Center     Atomic      Atomic             Coordinates (Angstroms)
 Number     Number       Type             X           Y           Z
 ---------------------------------------------------------------------
      1          6           0        0.989949    0.108252   -0.034216
      2          7           0        2.462713    0.073245   -0.038589
      3          6           0        3.249851   -1.065280   -0.038633
      4          6           0        4.555865   -0.659547   -0.040525
      5          7           0        4.531006    0.719037   -0.041719
      6          1           0        5.343115    1.330929   -0.043656
      7          6           0        3.261594    1.147205   -0.040519
      8          1           0        0.621644   -0.924947   -0.062131
      9          1           0        0.629282    0.647335   -0.920466
     10          1           0        0.633375    0.598100    0.881578
     11          1           0        2.822413   -2.063024   -0.037284
     12          1           0        5.478750   -1.230518   -0.041461
     13          1           0        2.937983    2.184222   -0.041009
 ---------------------------------------------------------------------
                    Distance matrix (angstroms):
                    1          2          3          4          5
     1  C    0.000000
     2  N    1.473187   0.000000
     3  C    2.546440   1.384134   0.000000
     4  C    3.647645   2.217718   1.367587   0.000000
     5  N    3.593356   2.166770   2.196624   1.378809   0.000000
     6  H    4.521624   3.143009   3.181760   2.140506   1.016826
     7  C    2.497966   1.338508   2.212517   2.222496   1.339678
     8  H    1.097236   2.094392   2.632055   3.943221   4.241015
     9  H    1.098239   2.113944   3.252394   4.230874   4.000099
    10  H    1.098078   2.113920   3.234126   4.221123   4.007322
    11  H    2.841193   2.166341   1.085448   2.230384   3.264839
    12  H    4.684196   3.285769   2.235017   1.085230   2.167713
    13  H    2.846846   2.163818   3.264434   3.271783   2.164369
                    6          7          8          9         10
     6  H    0.000000
     7  C    2.089616   0.000000
     8  H    5.232743   3.356131   0.000000
     9  H    4.843172   2.820150   1.791331   0.000000
    10  H    4.855383   2.838893   1.791758   1.802721   0.000000
    11  H    4.227635   3.240133   2.477745   3.596649   3.566199
    12  H    2.565036   3.251053   4.866752   5.274118   5.260561
    13  H    2.552014   1.086337   3.877215   2.909564   2.945872
                   11         12         13
    11  H    0.000000
    12  H    2.783740   0.000000
    13  H    4.248820   4.256283   0.000000
 Stoichiometry    C4H7N2(1+)
 Framework group  C1[X(C4H7N2)]
 Deg. of freedom    33
 Full point group                 C1      NOp   1
 Largest Abelian subgroup         C1      NOp   1
 Largest concise Abelian subgroup C1      NOp   1
                         Standard orientation:                         
 ---------------------------------------------------------------------
 Center     Atomic      Atomic             Coordinates (Angstroms)
 Number     Number       Type             X           Y           Z
 ---------------------------------------------------------------------
      1          6           0        2.116247   -0.009717    0.000774
      2          7           0        0.643159    0.007312   -0.000895
      3          6           0       -0.157814    1.136147   -0.000453
      4          6           0       -1.458780    0.714505    0.000426
      5          7           0       -1.417100   -0.663674    0.000367
      6          1           0       -2.221682   -1.285432    0.000462
      7          6           0       -0.142557   -1.076318   -0.000422
      8          1           0        2.471862    1.027875   -0.028709
      9          1           0        2.481830   -0.545137   -0.885681
     10          1           0        2.480462   -0.494372    0.916325
     11          1           0        0.257417    2.139033   -0.000752
     12          1           0       -2.388564    1.274170    0.000715
     13          1           0        0.193685   -2.109308   -0.000625
 ---------------------------------------------------------------------
 Rotational constants (GHZ):      8.8149069      3.4940457      2.5434647
 Standard basis: CC-pVDZ (5D, 7F)
 There are   125 symmetry adapted cartesian basis functions of A   symmetry.
 There are   119 symmetry adapted basis functions of A   symmetry.
   119 basis functions,   247 primitive gaussians,   125 cartesian basis functions
    22 alpha electrons       22 beta electrons
       nuclear repulsion energy       236.0821677679 Hartrees.
 NAtoms=   13 NActive=   13 NUniq=   13 SFac= 1.00D+00 NAtFMM=   60 NAOKFM=F Big=F
 Integral buffers will be    131072 words long.
 Raffenetti 2 integral format.
 Two-electron integral symmetry is turned on.
 One-electron integrals computed using PRISM.
 NBasis=   119 RedAO= T EigKep=  1.44D-03  NBF=   119
 NBsUse=   119 1.00D-06 EigRej= -1.00D+00 NBFU=   119
 Initial guess from the checkpoint file:  "im1h.chk"
 B after Tr=     0.000000    0.000000    0.000000
         Rot=    1.000000    0.000125    0.000021   -0.000128 Ang=   0.02 deg.
 Keep R1 ints in memory in canonical form, NReq=26560622.
 Requested convergence on RMS density matrix=1.00D-08 within 128 cycles.
 Requested convergence on MAX density matrix=1.00D-06.
 Requested convergence on             energy=1.00D-06.
 No special actions if energy rises.
 SCF Done:  E(RB3LYP) =  -265.925459424     A.U. after    9 cycles
            NFock=  9  Conv=0.62D-08     -V/T= 2.0074
 Calling FoFJK, ICntrl=      2127 FMM=F ISym2X=0 I1Cent= 0 IOpClX= 0 NMat=1 NMatS=1 NMatT=0.
 ***** Axes restored to original set *****
 -------------------------------------------------------------------
 Center     Atomic                   Forces (Hartrees/Bohr)
 Number     Number              X              Y              Z
 -------------------------------------------------------------------
      1        6          -0.000454671   -0.001054422   -0.000121806
      2        7          -0.000124224    0.000986179   -0.000098483
      3        6           0.000916287   -0.000588044    0.000051944
      4        6          -0.000338101   -0.000997407   -0.000003759
      5        7          -0.000198180    0.000699916    0.000021573
      6        1           0.000122680   -0.000082580   -0.000006135
      7        6          -0.000245232   -0.000177964   -0.000002756
      8        1           0.000247429    0.000963636    0.000011566
      9        1           0.000118984   -0.000055177    0.000154934
     10        1           0.000001763    0.000001659    0.000011579
     11        1          -0.000157069    0.000079435   -0.000001842
     12        1           0.000126605    0.000177561   -0.000006599
     13        1          -0.000016272    0.000047209   -0.000010218
 -------------------------------------------------------------------
 Cartesian Forces:  Max     0.001054422 RMS     0.000404592

 GradGradGradGradGradGradGradGradGradGradGradGradGradGradGradGradGradGrad
 Berny optimization.
 Using GEDIIS/GDIIS optimizer.
 FormGI is forming the generalized inverse of G from B-inverse, IUseBI=4.
 Internal  Forces:  Max     0.000993048 RMS     0.000209572
 Search for a local minimum.
 Step number   4 out of a maximum of  100
 All quantities printed in internal units (Hartrees-Bohrs-Radians)
 Mixed Optimization -- En-DIIS/RFO-DIIS
 Swapping is turned off.
 Update second derivatives using D2CorX and points    1    2    3    4
 DE= -8.57D-05 DEPred=-7.66D-05 R= 1.12D+00
 TightC=F SS=  1.41D+00  RLast= 3.21D-02 DXNew= 8.4853D-01 9.6409D-02
 Trust test= 1.12D+00 RLast= 3.21D-02 DXMaxT set to 5.05D-01
 ITU=  1  1  1  0
     Eigenvalues ---    0.00932   0.01721   0.02369   0.02379   0.02385
     Eigenvalues ---    0.02399   0.02401   0.02403   0.06994   0.07774
     Eigenvalues ---    0.12124   0.16000   0.16000   0.16000   0.16014
     Eigenvalues ---    0.16078   0.16163   0.22627   0.24933   0.29244
     Eigenvalues ---    0.30140   0.32517   0.35691   0.35710   0.35794
     Eigenvalues ---    0.36564   0.41023   0.44050   0.45277   0.47794
     Eigenvalues ---    0.52794   0.56018   0.56503
 En-DIIS/RFO-DIIS IScMMF=        0 using points:     4    3
 RFO step:  Lambda=-4.44179830D-06.
 DidBck=F Rises=F RFO-DIIS coefs:    1.13423   -0.13423
 Iteration  1 RMS(Cart)=  0.00122317 RMS(Int)=  0.00000164
 Iteration  2 RMS(Cart)=  0.00000151 RMS(Int)=  0.00000057
 Iteration  3 RMS(Cart)=  0.00000000 RMS(Int)=  0.00000057
 Variable       Old X    -DE/DX   Delta X   Delta X   Delta X     New X
                                 (Linear)    (Quad)   (Total)
    R1        2.78392   0.00008   0.00039   0.00023   0.00062   2.78454
    R2        2.07348  -0.00099  -0.00023  -0.00199  -0.00222   2.07125
    R3        2.07537  -0.00019   0.00101  -0.00182  -0.00081   2.07456
    R4        2.07507   0.00001  -0.00014   0.00005  -0.00009   2.07497
    R5        2.61563   0.00080   0.00057   0.00135   0.00192   2.61755
    R6        2.52941  -0.00028  -0.00051  -0.00023  -0.00074   2.52868
    R7        2.58437  -0.00035  -0.00083  -0.00010  -0.00094   2.58343
    R8        2.05120  -0.00001  -0.00008   0.00003  -0.00005   2.05114
    R9        2.60557   0.00067   0.00052   0.00114   0.00166   2.60724
   R10        2.05079   0.00001  -0.00004   0.00006   0.00002   2.05081
   R11        1.92152   0.00005   0.00028  -0.00016   0.00012   1.92165
   R12        2.53162   0.00005  -0.00039   0.00029  -0.00010   2.53153
   R13        2.05288   0.00005   0.00006   0.00010   0.00016   2.05304
    A1        1.88927   0.00017  -0.00031   0.00136   0.00105   1.89032
    A2        1.91514  -0.00012  -0.00053  -0.00055  -0.00108   1.91406
    A3        1.91528  -0.00002  -0.00045   0.00010  -0.00034   1.91494
    A4        1.90864  -0.00001  -0.00062   0.00017  -0.00046   1.90818
    A5        1.90952  -0.00004  -0.00011   0.00007  -0.00004   1.90948
    A6        1.92560   0.00002   0.00197  -0.00110   0.00087   1.92647
    A7        2.19947  -0.00009  -0.00022  -0.00020  -0.00042   2.19904
    A8        2.18660   0.00000   0.00008   0.00015   0.00023   2.18683
    A9        1.89712   0.00009   0.00014   0.00005   0.00019   1.89731
   A10        1.87449  -0.00003  -0.00002  -0.00004  -0.00005   1.87444
   A11        2.13193  -0.00017  -0.00127  -0.00083  -0.00210   2.12984
   A12        2.27676   0.00020   0.00129   0.00087   0.00215   2.27891
   A13        1.85398  -0.00011  -0.00017  -0.00014  -0.00031   1.85367
   A14        2.28634   0.00027   0.00135   0.00116   0.00251   2.28884
   A15        2.14287  -0.00017  -0.00117  -0.00102  -0.00219   2.14068
   A16        2.19848  -0.00019  -0.00018  -0.00095  -0.00113   2.19735
   A17        1.91414   0.00011   0.00023   0.00006   0.00028   1.91442
   A18        2.17057   0.00008  -0.00005   0.00089   0.00084   2.17141
   A19        1.88505  -0.00006  -0.00018   0.00008  -0.00010   1.88495
   A20        2.19955   0.00003   0.00011  -0.00002   0.00008   2.19963
   A21        2.19859   0.00003   0.00007  -0.00006   0.00002   2.19861
    D1       -0.02989  -0.00003  -0.00055  -0.00242  -0.00298  -0.03287
    D2        3.11416  -0.00002  -0.00043  -0.00168  -0.00211   3.11204
    D3       -2.11163  -0.00005   0.00069  -0.00312  -0.00242  -2.11406
    D4        1.03241  -0.00004   0.00082  -0.00238  -0.00156   1.03085
    D5        2.05300   0.00001  -0.00113  -0.00147  -0.00260   2.05040
    D6       -1.08614   0.00003  -0.00101  -0.00073  -0.00174  -1.08788
    D7       -3.13939   0.00000   0.00013   0.00022   0.00035  -3.13903
    D8        0.00216   0.00001   0.00008   0.00051   0.00059   0.00275
    D9        0.00009  -0.00001   0.00003  -0.00042  -0.00039  -0.00030
   D10       -3.14155   0.00000  -0.00002  -0.00013  -0.00015   3.14148
   D11        3.13945  -0.00001  -0.00012  -0.00041  -0.00053   3.13892
   D12       -0.00213  -0.00001  -0.00009  -0.00059  -0.00068  -0.00281
   D13       -0.00005   0.00000  -0.00001   0.00022   0.00021   0.00016
   D14        3.14156   0.00000   0.00002   0.00004   0.00005  -3.14157
   D15       -0.00010   0.00001  -0.00003   0.00044   0.00041   0.00031
   D16       -3.14125   0.00001  -0.00002   0.00034   0.00032  -3.14093
   D17        3.14155   0.00000   0.00002   0.00012   0.00014  -3.14150
   D18        0.00039   0.00000   0.00003   0.00002   0.00005   0.00045
   D19       -3.14106   0.00000   0.00001  -0.00001   0.00000  -3.14105
   D20        0.00007  -0.00001   0.00003  -0.00032  -0.00029  -0.00022
   D21        0.00014   0.00000   0.00000   0.00008   0.00009   0.00023
   D22        3.14127   0.00000   0.00002  -0.00022  -0.00021   3.14106
   D23       -0.00002   0.00000  -0.00001   0.00006   0.00005   0.00003
   D24        3.14156   0.00001  -0.00004   0.00024   0.00021  -3.14142
   D25        3.14112   0.00000   0.00000  -0.00024  -0.00024   3.14088
   D26       -0.00049   0.00000  -0.00003  -0.00006  -0.00009  -0.00057
         Item               Value     Threshold  Converged?
 Maximum Force            0.000993     0.000015     NO 
 RMS     Force            0.000210     0.000010     NO 
 Maximum Displacement     0.003761     0.000060     NO 
 RMS     Displacement     0.001223     0.000040     NO 
 Predicted change in Energy=-4.231013D-06
 GradGradGradGradGradGradGradGradGradGradGradGradGradGradGradGradGradGrad

                          Input orientation:                          
 ---------------------------------------------------------------------
 Center     Atomic      Atomic             Coordinates (Angstroms)
 Number     Number       Type             X           Y           Z
 ---------------------------------------------------------------------
      1          6           0        0.989696    0.107988   -0.034112
      2          7           0        2.462797    0.073483   -0.038866
      3          6           0        3.250429   -1.065934   -0.038180
      4          6           0        4.555976   -0.660373   -0.040310
      5          7           0        4.530693    0.719084   -0.041834
      6          1           0        5.343362    1.330339   -0.044009
      7          6           0        3.261324    1.147219   -0.040966
      8          1           0        0.621051   -0.923782   -0.064121
      9          1           0        0.629905    0.648327   -0.919423
     10          1           0        0.633524    0.596123    0.882694
     11          1           0        2.820837   -2.062720   -0.036425
     12          1           0        5.480288   -1.229053   -0.041137
     13          1           0        2.937658    2.184308   -0.041940
 ---------------------------------------------------------------------
                    Distance matrix (angstroms):
                    1          2          3          4          5
     1  C    0.000000
     2  N    1.473513   0.000000
     3  C    2.547357   1.385149   0.000000
     4  C    3.648119   2.218094   1.367090   0.000000
     5  N    3.593350   2.166334   2.196675   1.379690   0.000000
     6  H    4.522019   3.142828   3.181592   2.140777   1.016892
     7  C    2.498068   1.338117   2.213182   2.223401   1.339627
     8  H    1.096060   2.094566   2.633346   3.943803   4.240850
     9  H    1.097812   2.113130   3.253064   4.230788   3.998915
    10  H    1.098029   2.113922   3.233982   4.220942   4.007219
    11  H    2.839905   2.166002   1.085419   2.230986   3.265283
    12  H    4.685418   3.286618   2.235819   1.085242   2.167249
    13  H    2.847055   2.163581   3.265258   3.272791   2.164403
                    6          7          8          9         10
     6  H    0.000000
     7  C    2.090078   0.000000
     8  H    5.232752   3.355685   0.000000
     9  H    4.842331   2.818678   1.789734   0.000000
    10  H    4.855969   2.839399   1.790734   1.802877   0.000000
    11  H    4.228007   3.240025   2.477299   3.595782   3.563505
    12  H    2.563054   3.251226   4.868871   5.274671   5.260785
    13  H    2.552778   1.086422   3.876517   2.907737   2.947255
                   11         12         13
    11  H    0.000000
    12  H    2.787059   0.000000
    13  H    4.248637   4.256289   0.000000
 Stoichiometry    C4H7N2(1+)
 Framework group  C1[X(C4H7N2)]
 Deg. of freedom    33
 Full point group                 C1      NOp   1
 Largest Abelian subgroup         C1      NOp   1
 Largest concise Abelian subgroup C1      NOp   1
                         Standard orientation:                         
 ---------------------------------------------------------------------
 Center     Atomic      Atomic             Coordinates (Angstroms)
 Number     Number       Type             X           Y           Z
 ---------------------------------------------------------------------
      1          6           0        2.116489   -0.009233    0.000894
      2          7           0        0.643066    0.007030   -0.001158
      3          6           0       -0.158608    1.136612   -0.000383
      4          6           0       -1.459035    0.714921    0.000408
      5          7           0       -1.416681   -0.664119    0.000504
      6          1           0       -2.221724   -1.285387    0.000580
      7          6           0       -0.142110   -1.076509   -0.000474
      8          1           0        2.472277    1.026982   -0.031048
      9          1           0        2.481305   -0.546168   -0.884432
     10          1           0        2.480368   -0.491794    0.917625
     11          1           0        0.258614    2.138640   -0.000632
     12          1           0       -2.390316    1.272116    0.000615
     13          1           0        0.194367   -2.109512   -0.000798
 ---------------------------------------------------------------------
 Rotational constants (GHZ):      8.8112660      3.4937268      2.5430008
 Standard basis: CC-pVDZ (5D, 7F)
 There are   125 symmetry adapted cartesian basis functions of A   symmetry.
 There are   119 symmetry adapted basis functions of A   symmetry.
   119 basis functions,   247 primitive gaussians,   125 cartesian basis functions
    22 alpha electrons       22 beta electrons
       nuclear repulsion energy       236.0616734229 Hartrees.
 NAtoms=   13 NActive=   13 NUniq=   13 SFac= 1.00D+00 NAtFMM=   60 NAOKFM=F Big=F
 Integral buffers will be    131072 words long.
[...]
    D2        2.09024   0.00000   0.00000   0.00003   0.00003   2.09027
    D3        3.14158   0.00000   0.00000   0.00002   0.00002  -3.14159
    D4       -0.00003   0.00000   0.00000   0.00003   0.00003   0.00000
    D5        1.05130   0.00000   0.00000   0.00002   0.00002   1.05132
    D6       -2.09031   0.00000   0.00000   0.00004   0.00004  -2.09027
    D7        3.14159   0.00000   0.00000   0.00000   0.00000  -3.14159
    D8       -0.00002   0.00000   0.00000   0.00002   0.00002   0.00000
    D9        0.00000   0.00000   0.00000   0.00000   0.00000   0.00000
   D10        3.14158   0.00000   0.00000   0.00001   0.00001   3.14159
   D11        3.14159   0.00000   0.00000   0.00000   0.00000   3.14159
   D12        0.00004   0.00000   0.00000  -0.00004  -0.00004   0.00000
   D13       -0.00001   0.00000   0.00000   0.00001   0.00001   0.00000
   D14       -3.14157   0.00000   0.00000  -0.00003  -0.00003   3.14159
   D15        0.00000   0.00000   0.00000   0.00000   0.00000   0.00000
   D16       -3.14157   0.00000   0.00000  -0.00002  -0.00002  -3.14159
   D17       -3.14157   0.00000   0.00000  -0.00002  -0.00002  -3.14159
   D18        0.00005   0.00000   0.00000  -0.00005  -0.00005   0.00000
   D19       -3.14156   0.00000   0.00000  -0.00003  -0.00003  -3.14159
   D20       -0.00001   0.00000   0.00000   0.00001   0.00001   0.00000
   D21        0.00001   0.00000   0.00000  -0.00001  -0.00001   0.00000
   D22        3.14156   0.00000   0.00000   0.00003   0.00003   3.14159
   D23        0.00001   0.00000   0.00000  -0.00001  -0.00001   0.00000
   D24        3.14157   0.00000   0.00000   0.00002   0.00002  -3.14159
   D25        3.14157   0.00000   0.00000   0.00003   0.00003   3.14159
   D26       -0.00006   0.00000   0.00000   0.00006   0.00006   0.00000
         Item               Value     Threshold  Converged?
 Maximum Force            0.000002     0.000450     YES
 RMS     Force            0.000001     0.000300     YES
 Maximum Displacement     0.000052     0.001800     YES
 RMS     Displacement     0.000014     0.001200     YES
 Predicted change in Energy=-1.517854D-10
 Optimization completed.
    -- Stationary point found.
                           ----------------------------
                           !   Optimized Parameters   !
                           ! (Angstroms and Degrees)  !
 --------------------------                            --------------------------
 ! Name  Definition              Value          Derivative Info.                !
 --------------------------------------------------------------------------------
 ! R1    R(1,2)                  1.4706         -DE/DX =    0.0                 !
 ! R2    R(1,8)                  1.0982         -DE/DX =    0.0                 !
 ! R3    R(1,9)                  1.0963         -DE/DX =    0.0                 !
 ! R4    R(1,10)                 1.0982         -DE/DX =    0.0                 !
 ! R5    R(2,3)                  1.3864         -DE/DX =    0.0                 !
 ! R6    R(2,7)                  1.3367         -DE/DX =    0.0                 !
 ! R7    R(3,4)                  1.3663         -DE/DX =    0.0                 !
 ! R8    R(3,11)                 1.0856         -DE/DX =    0.0                 !
 ! R9    R(4,5)                  1.3807         -DE/DX =    0.0                 !
 ! R10   R(4,12)                 1.0854         -DE/DX =    0.0                 !
 ! R11   R(5,6)                  1.0167         -DE/DX =    0.0                 !
 ! R12   R(5,7)                  1.34           -DE/DX =    0.0                 !
 ! R13   R(7,13)                 1.0863         -DE/DX =    0.0                 !
 ! A1    A(2,1,8)              109.303          -DE/DX =    0.0                 !
 ! A2    A(2,1,9)              108.9753         -DE/DX =    0.0                 !
 ! A3    A(2,1,10)             109.3031         -DE/DX =    0.0                 !
 ! A4    A(8,1,9)              109.6071         -DE/DX =    0.0                 !
 ! A5    A(8,1,10)             110.0252         -DE/DX =    0.0                 !
 ! A6    A(9,1,10)             109.6077         -DE/DX =    0.0                 !
 ! A7    A(1,2,3)              125.4781         -DE/DX =    0.0                 !
 ! A8    A(1,2,7)              125.7572         -DE/DX =    0.0                 !
 ! A9    A(3,2,7)              108.7648         -DE/DX =    0.0                 !
 ! A10   A(2,3,4)              107.3004         -DE/DX =    0.0                 !
 ! A11   A(2,3,11)             122.0215         -DE/DX =    0.0                 !
 ! A12   A(4,3,11)             130.6781         -DE/DX =    0.0                 !
 ! A13   A(3,4,5)              106.3029         -DE/DX =    0.0                 !
 ! A14   A(3,4,12)             131.1112         -DE/DX =    0.0                 !
 ! A15   A(5,4,12)             122.5859         -DE/DX =    0.0                 !
 ! A16   A(4,5,6)              125.924          -DE/DX =    0.0                 !
 ! A17   A(4,5,7)              109.5825         -DE/DX =    0.0                 !
 ! A18   A(6,5,7)              124.4935         -DE/DX =    0.0                 !
 ! A19   A(2,7,5)              108.0495         -DE/DX =    0.0                 !
 ! A20   A(2,7,13)             125.9846         -DE/DX =    0.0                 !
 ! A21   A(5,7,13)             125.9659         -DE/DX =    0.0                 !
 ! D1    D(8,1,2,3)            -60.2374         -DE/DX =    0.0                 !
 ! D2    D(8,1,2,7)            119.762          -DE/DX =    0.0                 !
 ! D3    D(9,1,2,3)           -180.0008         -DE/DX =    0.0                 !
 ! D4    D(9,1,2,7)             -0.0015         -DE/DX =    0.0                 !
 ! D5    D(10,1,2,3)            60.2349         -DE/DX =    0.0                 !
 ! D6    D(10,1,2,7)          -119.7657         -DE/DX =    0.0                 !
 ! D7    D(1,2,3,4)           -180.0002         -DE/DX =    0.0                 !
 ! D8    D(1,2,3,11)            -0.0013         -DE/DX =    0.0                 !
 ! D9    D(7,2,3,4)              0.0003         -DE/DX =    0.0                 !
 ! D10   D(7,2,3,11)           179.9992         -DE/DX =    0.0                 !
 ! D11   D(1,2,7,5)            179.9999         -DE/DX =    0.0                 !
 ! D12   D(1,2,7,13)             0.0021         -DE/DX =    0.0                 !
 ! D13   D(3,2,7,5)             -0.0007         -DE/DX =    0.0                 !
 ! D14   D(3,2,7,13)           180.0015         -DE/DX =    0.0                 !
 ! D15   D(2,3,4,5)              0.0002         -DE/DX =    0.0                 !
 ! D16   D(2,3,4,12)          -179.9986         -DE/DX =    0.0                 !
 ! D17   D(11,3,4,5)          -179.9986         -DE/DX =    0.0                 !
 ! D18   D(11,3,4,12)            0.0026         -DE/DX =    0.0                 !
 ! D19   D(3,4,5,6)           -179.9982         -DE/DX =    0.0                 !
 ! D20   D(3,4,5,7)             -0.0006         -DE/DX =    0.0                 !
 ! D21   D(12,4,5,6)             0.0007         -DE/DX =    0.0                 !
 ! D22   D(12,4,5,7)           179.9983         -DE/DX =    0.0                 !
 ! D23   D(4,5,7,2)              0.0008         -DE/DX =    0.0                 !
 ! D24   D(4,5,7,13)          -180.0014         -DE/DX =    0.0                 !
 ! D25   D(6,5,7,2)            179.9985         -DE/DX =    0.0                 !
 ! D26   D(6,5,7,13)            -0.0037         -DE/DX =    0.0                 !
 --------------------------------------------------------------------------------
 GradGradGradGradGradGradGradGradGradGradGradGradGradGradGradGradGradGrad

 1\1\GINC-BARREL\Freq\RB3LYP\CC-pVDZ\C4H7N2(1+)\FLORIAN\24-Nov-2020\0\\
 # b3lyp/cc-pvdz freq geom=allcheck\\im1h opt of inital coordinates gen
 erqated with avogadro, sorted as in charmm str file /site/raid1/floria
 n/stream/im1h_d_final2.str\\1,1\C,0.9919225638,0.0979238841,-0.0340620
 491\N,2.4623672039,0.0755915255,-0.0377537054\C,3.2505443658,-1.048062
 6518,0.157925054\C,4.5546760879,-0.6481733844,0.0800232117\N,4.5295363
 481,0.7109854272,-0.1615034708\H,5.3418440123,1.3122100515,-0.27266325
 27\C,3.2591229322,1.1315917762,-0.2296744504\H,0.616860313,-0.56056569
 38,-0.8288890567\H,0.6505410459,1.1239199446,-0.2146901192\H,0.6260895
 852,-0.2456052461,0.9427628891\H,2.8205879057,-2.0291139255,0.33461842
 37\H,5.4796557096,-1.2080227098,0.1747224579\H,2.9337919266,2.15233100
 22,-0.4094459321\\Version=ES64L-G09RevD.01\State=1-A\HF=-265.9263107\R
 MSD=4.071e-09\RMSF=1.276e-06\ZeroPoint=0.1123116\Thermal=0.1177664\Dip
 ole=0.2801533,0.4981397,-0.0900435\DipoleDeriv=0.6186601,0.0069557,-0.
 0037437,-0.0209021,0.0890081,0.0087093,0.0012013,0.0085623,0.1358515,-
 0.5072929,-0.0907625,0.0183611,-0.0862544,-0.0024717,-0.0135124,0.0175
 727,-0.0134866,-0.0786725,0.0608484,0.1178783,-0.0214993,-0.1861283,0.
 0236425,-0.010695,0.032557,-0.012289,-0.0399449,0.0411478,-0.0767016,0
 .013281,0.1779272,0.0921797,-0.0222176,-0.0319993,-0.020894,-0.0237228
 ,-0.569821,-0.1980952,0.0374398,-0.220404,-0.0991929,-0.0069455,0.0413
 917,-0.0070653,-0.143623,0.3689992,0.0973707,-0.0175833,0.113092,0.268
 9044,0.0080323,-0.0203717,0.0081168,0.3160617,0.5689043,0.1960349,-0.0
 372986,0.2526592,-0.0523135,0.0258269,-0.0473675,0.0261431,0.0959184,0
 .0105893,0.0203941,0.0252789,-0.0050061,0.0713572,-0.0521608,-0.010016
 6,-0.04861,0.0565727,0.0363507,-0.050631,0.0094277,0.0168441,0.0004505
 ,0.0208208,-0.0025684,0.0211736,0.1143075,0.0104145,0.0109189,-0.03054
 1,-0.0007239,0.1021883,0.0354716,0.0113409,0.0317275,0.0259227,0.10505
 84,-0.0023926,0.000796,0.0147669,0.1661239,0.0016805,-0.0022546,0.0017
 743,0.175711,0.1519223,-0.0214045,0.0039609,-0.0421733,0.1380196,0.008
 0008,0.0076584,0.0078914,0.1803329,0.1042188,-0.009565,0.0021205,-0.01
 36975,0.202104,-0.0030111,0.0028562,-0.0030442,0.1852846\Polar=63.0275
 805,-0.3461633,54.1284583,-0.1214135,-4.6547604,28.7675974\PG=C01 [X(C
 4H7N2)]\NImag=0\\0.44996603,0.00018164,0.62394081,0.00069807,-0.006026
 11,0.59112632,-0.20995401,0.00196807,0.00041143,0.81806558,-0.00121353
 ,-0.10615029,0.00754599,0.06001039,0.65495476,0.00097775,0.00752968,-0
 .06508991,-0.01412422,-0.08910697,0.17148100,-0.01737666,0.02805246,-0
 .00490757,-0.16956685,0.05124959,-0.00856818,0.71162766,0.00639687,0.0
 0807011,-0.00182831,0.07242941,-0.22496560,0.02801074,0.17571837,0.787
 84792,-0.00105742,-0.00194112,-0.00167403,-0.01233431,0.02812189,-0.07
 024067,-0.03431052,-0.11895956,0.14531218,0.00313096,0.00315358,-0.000
 56730,-0.07121195,0.06486340,-0.01110216,-0.39913191,-0.09615368,0.018
 82916,0.90471324,0.00111986,-0.00793655,0.00173743,0.00381698,0.013642
 63,-0.00041512,-0.08539008,-0.13220303,0.01204390,-0.11056107,0.610191
 05,-0.00020562,0.00172691,0.00156244,-0.00024763,-0.00073271,0.0115507
 3,0.01691616,0.01209938,-0.06921132,0.01557706,-0.08595989,0.13867710,
 0.00387920,-0.00740244,0.00132300,-0.09798114,-0.05227702,0.00987895,-
 0.01951707,-0.01929812,0.00360128,-0.12681065,-0.00192203,0.00070503,0
 .92447834,-0.00059288,-0.00263494,0.00140118,-0.00900741,-0.02436402,0
 .00687818,-0.07918727,-0.04766603,0.01121257,0.01356155,-0.28922584,0.
 04114415,0.14832452,0.72132232,0.00011249,0.00143653,0.00497181,0.0021
 8601,0.00710283,0.01278294,0.01424914,0.01090101,0.01106142,-0.0020483
 5,0.04122647,-0.06473521,-0.03066887,-0.11085438,0.12210830,0.00002584
 ,-0.00062168,0.00012599,-0.00342475,0.00463851,-0.00078988,0.00206983,
 0.00292869,-0.00051381,0.00993285,0.00222446,-0.00047158,-0.31387003,-
 0.17700689,0.03304335,0.31653757,-0.00049997,0.00110111,0.00033838,0.0
 0704988,0.00064921,0.00042761,0.00113511,-0.00727978,0.00188810,-0.025
 11947,-0.00437827,0.00009060,-0.18036468,-0.20376433,0.03468626,0.1883
 4163,0.19784166,0.00010432,0.00033890,0.00292823,-0.00121874,0.0004405
 5,0.00318834,-0.00019479,0.00187836,0.00303925,0.00439003,-0.00005302,
 -0.00462254,0.03364257,0.03466961,-0.02034379,-0.03505900,-0.03319570,
 0.02278508,-0.02035914,-0.02141068,0.00388683,-0.21576829,-0.12628188,
 0.02322291,0.01148549,-0.02575907,0.00459550,-0.02328880,0.07417758,-0
 .01298847,-0.36721579,0.08241851,-0.01307685,-0.01286960,0.00915334,-0
 .00158801,0.71857913,-0.00582379,0.00953821,-0.00258260,-0.12926080,-0
 .29095198,0.04025289,0.03242889,-0.09068476,0.01853955,0.01875892,-0.0
 6207000,0.01366477,0.08396543,-0.14502099,0.01383721,-0.02100849,0.014
 61102,-0.00338703,-0.07584914,0.90170217,0.00111468,-0.00250140,-0.004
 71909,0.02375240,0.04023607,-0.07563368,-0.00575133,0.01884312,0.01121
 546,-0.00313314,0.01337643,0.01297037,-0.01335304,0.01384426,-0.067132
 35,0.00377680,-0.00354429,-0.00444132,0.01042914,-0.13633812,0.1568362
 0,-0.07196459,-0.04769869,-0.05978140,-0.02490073,-0.02465254,-0.02309
 110,0.00209012,-0.00150883,-0.00005943,-0.00063370,-0.00128209,0.00049
 303,-0.00283665,0.00027018,0.00068946,-0.00009941,0.00043189,0.0005472
 4,-0.00017449,0.00331039,-0.00313885,0.08946771,-0.05522885,-0.1506925
 2,-0.12429430,0.00106913,0.00228010,0.00369419,0.00074830,0.00051743,0
 .00036886,-0.00037147,0.00027202,0.00007823,0.00112224,0.00000088,0.00
 034752,-0.00005209,-0.00007387,-0.00017598,-0.00099841,-0.00021699,-0.
 00014897,0.05888745,0.15448505,-0.06759648,-0.12517466,-0.19822716,0.0
 0156437,0.00395301,0.00495535,0.00006389,-0.00034665,0.00067346,-0.000
 20397,-0.00003722,0.00006736,0.00026790,0.00043125,-0.00052659,0.00005
 409,-0.00003279,-0.00012033,0.00135923,0.00055286,0.00018371,0.0701442
 7,0.13304314,0.20433943,-0.07111845,0.06739768,-0.01184885,-0.01940703
 ,0.03802465,-0.00667275,-0.00390106,-0.00376372,0.00069362,-0.00134899
 ,0.00144360,-0.00024675,-0.00015989,0.00037679,-0.00006777,0.00008790,
 0.00000098,-0.00000094,0.00189110,0.00164904,-0.00030004,0.00445009,-0
 .00977976,0.00334502,0.08598850,0.08321073,-0.30185609,0.04513495,-0.0
 0278867,0.00323252,-0.00102450,-0.00125612,0.00073635,0.00001219,-0.00
 041014,0.00029267,0.00004880,0.00020858,0.00010756,-0.00007419,0.00000
 205,0.00000830,-0.00001200,-0.00118736,0.00098622,-0.00006755,0.004986
 52,-0.01386887,0.00479147,-0.08451904,0.31620548,-0.01466020,0.0452174
 0,-0.05350568,0.00058323,-0.00123708,-0.00239493,0.00024762,0.00002529
 ,0.00076246,0.00008283,0.00003916,0.00054767,-0.00003778,-0.00007510,-
 0.00029021,-0.00000113,-0.00001200,-0.00005698,0.00020420,-0.00008235,
 0.00058498,0.00815129,-0.02080234,0.00535333,0.01479914,-0.04823511,0.
 05091310,-0.07051141,-0.02336878,0.07065150,-0.02463711,-0.01515982,0.
 03049033,0.00209129,-0.00139451,0.00056084,-0.00063352,-0.00137205,-0.
 00001365,-0.00284852,0.00001528,-0.00071445,-0.00010619,0.00021684,-0.
 00066307,-0.00016096,0.00418526,0.00181030,0.00480887,0.00442879,-0.00
 871478,0.00434231,0.00184710,-0.00939060,0.08785629,-0.02775265,-0.075
 53176,0.07943460,0.00048944,0.00014992,-0.00197942,0.00067433,0.000530
 09,-0.00032365,-0.00027819,0.00023744,-0.00013680,0.00096136,-0.000315
 57,-0.00043394,-0.00006598,-0.00001211,0.00013801,-0.00140261,-0.00030
 500,0.00033750,0.00699110,0.00732203,-0.01731405,-0.01009859,-0.006389
 69,0.02523929,0.03021445,0.07420613,0.08058482,0.08025280,-0.27483978,
 -0.00152023,-0.00202268,0.00682219,-0.00033161,0.00041448,0.00065963,0
 .00032693,-0.00001083,0.00010187,-0.00061255,-0.00050848,-0.00019825,-
 0.00003361,-0.00000918,-0.00017532,-0.00092829,-0.00041586,0.00025791,
 0.00645235,0.00843372,-0.01669122,0.00016450,-0.00049355,-0.00201753,-
 0.08430855,-0.08545949,0.28622777,0.00177232,-0.00046159,0.00006867,0.
 01151138,0.02299252,-0.00416131,-0.11071851,-0.12091651,0.02193674,0.0
 0290572,-0.02073774,0.00367764,-0.00524357,-0.00235230,0.00047155,0.00
 065698,-0.00104936,0.00019138,-0.00458830,0.00367955,-0.00061459,-0.00
 010230,0.00008723,-0.00027510,-0.00007379,-0.00014386,0.00002465,-0.00
 009655,0.00017723,0.00022719,0.10268357,-0.00107151,0.00074350,-0.0002
 6744,-0.01037585,-0.01587483,0.00243811,-0.11222922,-0.30686445,0.0503
 1061,0.00162295,0.00247901,-0.00026666,0.00042968,0.00210240,0.0005057
 5,-0.00010612,0.00042204,0.00020752,0.00412321,-0.00045879,0.00059368,
 0.00029956,-0.00001681,0.00012540,0.00006612,0.00014917,-0.00007200,0.
 00040545,-0.00004863,-0.00018353,0.11771905,0.31762175,0.00017714,-0.0
 0027066,-0.00074479,0.00177192,0.00226339,-0.00287966,0.02039265,0.050
 35697,-0.03628356,-0.00029881,-0.00015047,0.00105472,-0.00002336,0.000
 52025,0.00486648,0.00002374,0.00021236,0.00154801,-0.00069335,0.000596
 06,0.00289886,-0.00036540,-0.00009513,-0.00019355,-0.00001270,-0.00007
 090,-0.00024111,0.00023913,0.00003937,-0.00016744,-0.02135633,-0.05327
 451,0.03105805,0.00018313,0.00093486,-0.00016185,-0.00370356,-0.001834
 71,0.00037525,-0.00589863,0.01453340,-0.00254669,-0.29181380,0.1398419
 3,-0.02348258,0.00953240,-0.00603142,0.00101015,0.00036406,0.00058125,
 -0.00011390,0.00071414,-0.00303991,0.00055329,0.00002552,0.00000560,-0
 .00000831,-0.00033571,-0.00007459,0.00001475,0.00002388,0.00000912,0.0
 0000535,0.00026917,-0.00031276,0.00003979,0.29006973,0.00030405,0.0010
 5071,-0.00000751,-0.00441595,0.00053187,0.00093923,-0.00751071,0.01168
 736,-0.00182215,0.13085875,-0.13408615,0.01821532,0.02746758,-0.012300
 46,0.00162035,0.00021484,0.00075856,-0.00042989,-0.00357394,-0.0052092
 0,0.00150514,0.00004944,-0.00002831,-0.00001078,-0.00034283,0.00001680
 ,-0.00000997,-0.00000889,0.00001266,0.00001055,0.00046912,-0.00008639,
 -0.00047599,-0.14463008,0.13736129,-0.00004974,-0.00001075,0.00101971,
 0.00083404,0.00092563,0.00551637,0.00137188,-0.00193713,0.00155548,-0.
 02188425,0.01816811,-0.03090159,-0.00494600,0.00179543,-0.00267374,-0.
 00004876,-0.00043192,-0.00157608,0.00064829,0.00150272,0.00288159,0.00
 016070,-0.00010111,0.00001180,0.00006244,-0.00001136,-0.00004758,-0.00
 016825,0.00010101,-0.00002753,-0.00009919,-0.00047201,-0.00266543,0.02
 431120,-0.01980277,0.02512098,0.00232680,-0.00072443,0.00010147,0.0109
 7846,-0.02035955,0.00356440,-0.00325368,-0.00321231,0.00060506,-0.0058
 0946,-0.00135933,0.00028737,-0.00140662,0.02921133,-0.00518587,0.00069
 496,0.00012257,-0.00003707,-0.08824448,0.08700466,-0.01514561,-0.00013
 043,0.00008183,-0.00000013,-0.00041498,0.00012480,-0.00001798,-0.00012
 836,0.00008100,-0.00002630,0.00102389,-0.00057053,0.00010558,0.0005696
 8,0.00111863,-0.00019236,0.08379425,0.00097001,0.00035768,-0.00058627,
 0.00901539,-0.01313428,0.00235540,-0.00443364,0.00027439,0.00054878,0.
 00007488,0.00278505,0.00002791,-0.00121509,0.00175901,-0.00030143,0.00
 051106,0.00011647,-0.00041931,0.08659046,-0.33191989,0.05386410,-0.000
 08436,0.00001987,0.00001901,-0.00045492,0.00037958,0.00000480,-0.00000
 912,0.00014448,-0.00000793,0.00053667,-0.00016798,0.00034924,0.0000173
 2,0.00029127,0.00027415,-0.09151867,0.33909435,-0.00019980,-0.00057753
 ,-0.00280806,-0.00165825,0.00251005,-0.00005805,0.00082266,0.00054230,
 0.00313025,0.00003197,0.00003504,0.00293840,0.00022289,-0.00045893,0.0
 0010921,-0.00010619,-0.00041743,-0.00215254,-0.01507114,0.05385990,-0.
 03590262,-0.00020216,-0.00034782,0.00017442,0.00008509,0.00000175,0.00
 039250,0.00022126,0.00035756,0.00004772,-0.00009129,0.00035508,0.00174
 942,0.00000354,0.00026847,0.00178604,0.01594144,-0.05612845,0.03059329
 \\-0.00000094,0.00000093,-0.00000026,-0.00000292,0.00000337,-0.0000001
 4,0.00000145,-0.00000013,-0.00000103,0.00000097,0.00000059,0.00000059,
 0.00000092,-0.00000125,0.00000264,-0.00000048,-0.00000071,-0.00000054,
 0.00000034,-0.00000322,-0.00000218,0.00000014,0.00000151,0.00000066,0.
 00000053,0.00000034,-0.00000066,-0.00000013,0.00000022,-0.00000034,0.0
 0000009,0.00000015,0.00000080,-0.00000085,-0.00000203,-0.00000051,0.00
 000088,0.00000023,0.00000097\\\@


 WHEN ALL ELSE FAILS, LOOK AT THE SCHRODINGER EQUATION.
     -- RUSSELL T. PACK, APRIL 1978
 Job cpu time:       0 days  0 hours  2 minutes 48.3 seconds.
 File lengths (MBytes):  RWF=     24 Int=      0 D2E=      0 Chk=      3 Scr=      1
 Normal termination of Gaussian 09 at Tue Nov 24 11:13:52 2020.
